                                 *****************
                                 * O   R   C   A *
                                 *****************

                                            #,                                       
                                            ###                                      
                                            ####                                     
                                            #####                                    
                                            ######                                   
                                           ########,                                 
                                     ,,################,,,,,                         
                               ,,#################################,,                 
                          ,,##########################################,,             
                       ,#########################################, ''#####,          
                    ,#############################################,,   '####,        
                  ,##################################################,,,,####,       
                ,###########''''           ''''###############################       
              ,#####''   ,,,,##########,,,,          '''####'''          '####       
            ,##' ,,,,###########################,,,                        '##       
           ' ,,###''''                  '''############,,,                           
         ,,##''                                '''############,,,,        ,,,,,,###''
      ,#''                                            '''#######################'''  
     '                                                          ''''####''''         
             ,#######,   #######,   ,#######,      ##                                
            ,#'     '#,  ##    ##  ,#'     '#,    #''#        ,####,   ,####,        
            ##       ##  ##   ,#'  ##            #'  '#       #'       #'  '#        
            ##       ##  #######   ##           ,######,      #####,   #    #        
            '#,     ,#'  ##    ##  '#,     ,#' ,#      #,     #,   #   #,  ,#        
             '#######'   ##     ##  '#######'  #'      '#     '####' # '####'.alpha  



                  #######################################################
                  #                        -***-                        #
                  #          Department of theory and spectroscopy      #
                  #    Directorship and core code : Frank Neese         #
                  #        Max Planck Institute fuer Kohlenforschung    #
                  #                Kaiser Wilhelm Platz 1               #
                  #                 D-45470 Muelheim/Ruhr               #
                  #                      Germany                        #
                  #                                                     #
                  #                  All rights reserved                #
                  #                        -***-                        #
                  #######################################################


                         Program Version 6.0  -  CURRENT   -
                                (GIT: $992d98065a$)
                ($2024-01-15 14:55:59 +0100 $)

                  !                     WARNING:                         !
                  !         This is a DEVELOPMENT version                !

                         (BUILD: $Di 16. Jan 00:10:13 CET 2024$)


 With contributions from (in alphabetic order):
   Daniel Aravena         : Magnetic Suceptibility
   Michael Atanasov       : Ab Initio Ligand Field Theory (pilot matlab implementation)
   Alexander A. Auer      : GIAO ZORA, VPT2 properties, NMR spectrum
   Ute Becker             : Parallelization
   Giovanni Bistoni       : ED, misc. LED, open-shell LED, HFLD
   Martin Brehm           : Molecular dynamics
   Dmytro Bykov           : SCF Hessian
   Vijay G. Chilkuri      : MRCI spin determinant printing, contributions to CSF-ICE
   Dipayan Datta          : RHF DLPNO-CCSD density
   Achintya Kumar Dutta   : EOM-CC, STEOM-CC
   Dmitry Ganyushin       : Spin-Orbit,Spin-Spin,Magnetic field MRCI
   Miquel Garcia          : C-PCM and meta-GGA Hessian, CCSD/C-PCM, Gaussian charge scheme
   Yang Guo               : DLPNO-NEVPT2, F12-NEVPT2, CIM, IAO-localization
   Andreas Hansen         : Spin unrestricted coupled pair/coupled cluster methods
   Benjamin Helmich-Paris : MC-RPA, TRAH-(SCF,CASSCF), AVAS, COSX integrals, SCF dyn. polar.
   Lee Huntington         : MR-EOM, pCC
   Robert Izsak           : Overlap fitted RIJCOSX, COSX-SCS-MP3, EOM
   Marcus Kettner         : VPT2
   Christian Kollmar      : KDIIS, OOCD, Brueckner-CCSD(T), CCSD density, CASPT2, CASPT2-K, improved NEVPT2
   Simone Kossmann        : Meta GGA functionals, TD-DFT gradient, OOMP2, MP2 Hessian
   Martin Krupicka        : Initial AUTO-CI
   Lucas Lang             : DCDCAS
   Marvin Lechner         : AUTO-CI (C++ implementation), FIC-MRCC
   Dagmar Lenk            : GEPOL surface, SMD
   Dimitrios Liakos       : Extrapolation schemes; Compound Job, initial MDCI parallelization
   Dimitrios Manganas     : Further ROCIS development; embedding schemes
   Dimitrios Pantazis     : SARC Basis sets
   Anastasios Papadopoulos: AUTO-CI, single reference methods and gradients
   Taras Petrenko         : DFT Hessian,TD-DFT gradient, ASA, ECA, R-Raman, ABS, FL, XAS/XES, NRVS
   Peter Pinski           : DLPNO-MP2, DLPNO-MP2 Gradient
   Christoph Reimann      : Effective Core Potentials
   Marius Retegan         : Local ZFS, SOC
   Christoph Riplinger    : Optimizer, TS searches, QM/MM, DLPNO-CCSD(T), (RO)-DLPNO pert. Triples
   Tobias Risthaus        : Range-separated hybrids, TD-DFT gradient, RPA, STAB
   Michael Roemelt        : Original ROCIS implementation
   Masaaki Saitow         : Open-shell DLPNO-CCSD energy and density
   Barbara Sandhoefer     : DKH picture change effects
   Avijit Sen             : IP-ROCIS
   Kantharuban Sivalingam : CASSCF convergence, NEVPT2, FIC-MRCI
   Bernardo de Souza      : ESD, SOC TD-DFT
   Georgi Stoychev        : AutoAux, RI-MP2 NMR, DLPNO-MP2 response
   Willem Van den Heuvel  : Paramagnetic NMR
   Boris Wezisla          : Elementary symmetry handling
   Frank Wennmohs         : Technical directorship


 We gratefully acknowledge several colleagues who have allowed us to
 interface, adapt or use parts of their codes:
   Stefan Grimme, W. Hujo, H. Kruse, P. Pracht,  : VdW corrections, initial TS optimization,
                  C. Bannwarth, S. Ehlert          DFT functionals, gCP, sTDA/sTD-DF
   Ed Valeev, F. Pavosevic, A. Kumar             : LibInt (2-el integral package), F12 methods
   Garnet Chan, S. Sharma, J. Yang, R. Olivares  : DMRG
   Ulf Ekstrom                                   : XCFun DFT Library
   Mihaly Kallay                                 : mrcc  (arbitrary order and MRCC methods)
   Jiri Pittner, Ondrej Demel                    : Mk-CCSD
   Frank Weinhold                                : gennbo (NPA and NBO analysis)
   Christopher J. Cramer and Donald G. Truhlar   : smd solvation model
   Lars Goerigk                                  : TD-DFT with DH, B97 family of functionals
   V. Asgeirsson, H. Jonsson                     : NEB implementation
   FAccTs GmbH                                   : IRC, NEB, NEB-TS, DLPNO-Multilevel, CI-OPT
                                                   MM, QMMM, 2- and 3-layer-ONIOM, Crystal-QMMM,
                                                   LR-CPCM, SF, NACMEs, symmetry and pop. for TD-DFT,
                                                   nearIR, NL-DFT gradient (VV10), updates on ESD,
                                                   ML-optimized integration grids
   S Lehtola, MJT Oliveira, MAL Marques          : LibXC Library
   Liviu Ungur et al                             : ANISO software


 Your calculation uses the libint2 library for the computation of 2-el integrals
 For citations please refer to: http://libint.valeyev.net

 Your ORCA version has been built with support for libXC version: 5.2.2
 For citations please refer to: https://tddft.org/programs/libxc/

 This ORCA versions uses:
   CBLAS   interface :  Fast vector & matrix operations
   LAPACKE interface :  Fast linear algebra routines
   SCALAPACK package :  Parallel linear algebra routines
   Shared memory     :  Shared parallel matrices


================================================================================

----- Orbital basis set information -----
Your calculation utilizes the basis: def2-TZVP(-f)
   F. Weigend and R. Ahlrichs, Phys. Chem. Chem. Phys. 7, 3297 (2005).

----- AuxJ basis set information -----
Your calculation utilizes the auxiliary basis: def2/J
   F. Weigend, Phys. Chem. Chem. Phys. 8, 1057 (2006).

----- AuxC basis set information -----
Your calculation utilizes the auxiliary basis: def2-TZVP/C
  H-La, Hf-Rn : A. Hellweg, C. Hattig, S. Hofener and W. Klopper, Theor. Chem. Acc. 117, 587 (2007).
        Ce-Lu : J. Chmela and M. E. Harding, Mol. Phys. (2018).

================================================================================
                                        WARNINGS
                       Please study these warnings very carefully!
================================================================================


WARNING: Post HF methods need fully converged wavefunctions
  ===> : Setting SCFConvForced true
         You can overwrite this default with %scf ConvForced false 


WARNING: MDCI localization with Augmented Hessian Foster-Boys
  ===> : Switching off randomization!
================================================================================
                                       INPUT FILE
================================================================================
NAME = 6.inp
|  1> ! DLPNO-CCSD RIJCOSX def2-TZVP(-f) def2/J def2-tzvp/C verytightscf LoosePNO
|  2> 
|  3> %pal nprocs 16 end
|  4> %maxcore 4000
|  5> %scf maxiter 999 end
|  6> 
|  7> *xyz 0 1
|  8> C(6)       9.674114    5.786946    5.671998
|  9> C(6)      10.838988    5.937057    6.307297
| 10> H(6)      11.625280    5.850045    5.781307
| 11> C(6)      11.033050    6.226963    7.756160
| 12> H(6)      11.479258    5.563590    8.269299
| 13> C(6)      10.636408    7.342178    8.413564
| 14> C(6)       9.901915    8.443438    7.728235
| 15> H(6)      10.307283    9.302318    7.705738
| 16> C(6)       8.710800    8.298727    7.144286
| 17> H(6)       8.312540    9.079626    6.778112
| 18> C(6)       7.954860    7.037744    7.014673
| 19> H(6)       7.088930    7.009127    7.404357
| 20> C(6)       8.381665    5.935438    6.398299
| 21> H(6)       7.810630    5.176666    6.424481
| 22> C(6)       9.569828    5.415060    4.180727
| 23> C(6)       8.921158    6.591160    3.443570
| 24> H(6)       8.026663    6.767888    3.829289
| 25> H(6)       9.474162    7.402760    3.568431
| 26> C(6)       8.780993    6.297203    1.950331
| 27> H(6)       8.355963    7.079521    1.494983
| 28> C(6)      10.132685    6.027540    1.331483
| 29> H(6)      10.706610    6.828986    1.423104
| 30> H(6)      10.024448    5.834265    0.366596
| 31> C(6)      10.797041    4.838699    2.021845
| 32> H(6)      11.698331    4.675841    1.620378
| 33> C(6)      10.946354    5.154816    3.531282
| 34> H(6)      11.386255    4.393057    3.985505
| 35> H(6)      11.520769    5.953004    3.645513
| 36> C(6)       8.698790    4.142084    3.972879
| 37> H(6)       9.128405    3.369635    4.418806
| 38> H(6)       7.808416    4.278582    4.383598
| 39> C(6)       8.534346    3.845159    2.471962
| 40> H(6)       7.958545    3.036442    2.351826
| 41> C(6)       7.887058    5.045760    1.768524
| 42> H(6)       6.990908    5.215863    2.153342
| 43> H(6)       7.777803    4.849724    0.804312
| 44> C(6)       9.919573    3.588366    1.851089
| 45> H(6)      10.348131    2.814931    2.296313
| 46> H(6)       9.821482    3.376732    0.888958
| 47> C(6)      10.968759    7.577204    9.886415
| 48> C(6)       9.657143    7.855408   10.626355
| 49> H(6)       9.051450    7.079069   10.523739
| 50> H(6)       9.214231    8.644048   10.223876
| 51> C(6)       9.902783    8.116897   12.124403
| 52> H(6)       9.033313    8.300237   12.583126
| 53> C(6)      10.580438    6.892562   12.762937
| 54> H(6)      10.742016    7.062426   13.724759
| 55> H(6)       9.989391    6.102412   12.682734
| 56> C(6)      11.912520    6.619138   12.052721
| 57> H(6)      12.345972    5.814570   12.458659
| 58> C(6)      11.646126    6.357366   10.562519
| 59> H(6)      11.061901    5.563719   10.468170
| 60> H(6)      12.502460    6.162620   10.105455
| 61> C(6)      11.906747    8.784953   10.079583
| 62> H(6)      11.500833    9.587722    9.666193
| 63> H(6)      12.769143    8.609083    9.626344
| 64> C(6)      12.157990    9.049500   11.579544
| 65> H(6)      12.755092    9.845637   11.677689
| 66> C(6)      10.838538    9.324381   12.281970
| 67> H(6)      10.413844   10.128872   11.891414
| 68> H(6)      11.001772    9.496877   13.243060
| 69> C(6)      12.835122    7.829597   12.215462
| 70> H(6)      13.703032    7.655275   11.772262
| 71> H(6)      13.004190    7.999183   13.176074
| 72> *
| 73> 
| 74>                          ****END OF INPUT****
================================================================================

                       ****************************
                       * Single Point Calculation *
                       ****************************

---------------------------------
CARTESIAN COORDINATES (ANGSTROEM)
---------------------------------
  C      9.674114    5.786946    5.671998
  C     10.838988    5.937057    6.307297
  H     11.625280    5.850045    5.781307
  C     11.033050    6.226963    7.756160
  H     11.479258    5.563590    8.269299
  C     10.636408    7.342178    8.413564
  C      9.901915    8.443438    7.728235
  H     10.307283    9.302318    7.705738
  C      8.710800    8.298727    7.144286
  H      8.312540    9.079626    6.778112
  C      7.954860    7.037744    7.014673
  H      7.088930    7.009127    7.404357
  C      8.381665    5.935438    6.398299
  H      7.810630    5.176666    6.424481
  C      9.569828    5.415060    4.180727
  C      8.921158    6.591160    3.443570
  H      8.026663    6.767888    3.829289
  H      9.474162    7.402760    3.568431
  C      8.780993    6.297203    1.950331
  H      8.355963    7.079521    1.494983
  C     10.132685    6.027540    1.331483
  H     10.706610    6.828986    1.423104
  H     10.024448    5.834265    0.366596
  C     10.797041    4.838699    2.021845
  H     11.698331    4.675841    1.620378
  C     10.946354    5.154816    3.531282
  H     11.386255    4.393057    3.985505
  H     11.520769    5.953004    3.645513
  C      8.698790    4.142084    3.972879
  H      9.128405    3.369635    4.418806
  H      7.808416    4.278582    4.383598
  C      8.534346    3.845159    2.471962
  H      7.958545    3.036442    2.351826
  C      7.887058    5.045760    1.768524
  H      6.990908    5.215863    2.153342
  H      7.777803    4.849724    0.804312
  C      9.919573    3.588366    1.851089
  H     10.348131    2.814931    2.296313
  H      9.821482    3.376732    0.888958
  C     10.968759    7.577204    9.886415
  C      9.657143    7.855408   10.626355
  H      9.051450    7.079069   10.523739
  H      9.214231    8.644048   10.223876
  C      9.902783    8.116897   12.124403
  H      9.033313    8.300237   12.583126
  C     10.580438    6.892562   12.762937
  H     10.742016    7.062426   13.724759
  H      9.989391    6.102412   12.682734
  C     11.912520    6.619138   12.052721
  H     12.345972    5.814570   12.458659
  C     11.646126    6.357366   10.562519
  H     11.061901    5.563719   10.468170
  H     12.502460    6.162620   10.105455
  C     11.906747    8.784953   10.079583
  H     11.500833    9.587722    9.666193
  H     12.769143    8.609083    9.626344
  C     12.157990    9.049500   11.579544
  H     12.755092    9.845637   11.677689
  C     10.838538    9.324381   12.281970
  H     10.413844   10.128872   11.891414
  H     11.001772    9.496877   13.243060
  C     12.835122    7.829597   12.215462
  H     13.703032    7.655275   11.772262
  H     13.004190    7.999183   13.176074

----------------------------
CARTESIAN COORDINATES (A.U.)
----------------------------
  NO LB      ZA    FRAG     MASS         X           Y           Z
   0 C     6.0000    6    12.011   18.281426   10.935743   10.718523
   1 C     6.0000    6    12.011   20.482719   11.219412   11.919064
   2 H     1.0000    6     1.008   21.968595   11.054983   10.925087
   3 C     6.0000    6    12.011   20.849443   11.767255   14.657018
   4 H     1.0000    6     1.008   21.692654   10.513661   15.626710
   5 C     6.0000    6    12.011   20.099898   13.874706   15.899332
   6 C     6.0000    6    12.011   18.711908   15.955785   14.604248
   7 H     1.0000    6     1.008   19.477942   17.578833   14.561734
   8 C     6.0000    6    12.011   16.461026   15.682321   13.500744
   9 H     1.0000    6     1.008   15.708424   17.158007   12.808775
  10 C     6.0000    6    12.011   15.032507   13.299409   13.255811
  11 H     1.0000    6     1.008   13.396136   13.245330   13.992207
  12 C     6.0000    6    12.011   15.839051   11.216352   12.091033
  13 H     1.0000    6     1.008   14.759952    9.782481   12.140510
  14 C     6.0000    6    12.011   18.084354   10.232980    7.900429
  15 C     6.0000    6    12.011   16.858545   12.455487    6.507404
  16 H     1.0000    6     1.008   15.168195   12.789455    7.236307
  17 H     1.0000    6     1.008   17.903572   13.989189    6.743357
  18 C     6.0000    6    12.011   16.593672   11.899989    3.685591
  19 H     1.0000    6     1.008   15.790482   13.378356    2.825108
  20 C     6.0000    6    12.011   19.148000   11.390400    2.516138
  21 H     1.0000    6     1.008   20.232561   12.904913    2.689277
  22 H     1.0000    6     1.008   18.943461   11.025163    0.692766
  23 C     6.0000    6    12.011   20.403451    9.143816    3.820733
  24 H     1.0000    6     1.008   22.106642    8.836059    3.062071
  25 C     6.0000    6    12.011   20.685611    9.741191    6.673156
  26 H     1.0000    6     1.008   21.516904    8.301675    7.531513
  27 H     1.0000    6     1.008   21.771098   11.249547    6.889021
  28 C     6.0000    6    12.011   16.438331    7.827404    7.507653
  29 H     1.0000    6     1.008   17.250185    6.367687    8.350333
  30 H     1.0000    6     1.008   14.755768    8.085348    8.283800
  31 C     6.0000    6    12.011   16.127577    7.266297    4.671331
  32 H     1.0000    6     1.008   15.039470    5.738044    4.444307
  33 C     6.0000    6    12.011   14.904380    9.535105    3.342026
  34 H     1.0000    6     1.008   13.210902    9.856553    4.069227
  35 H     1.0000    6     1.008   14.697918    9.164650    1.519929
  36 C     6.0000    6    12.011   18.745276    6.781029    3.498051
  37 H     1.0000    6     1.008   19.555134    5.319449    4.339403
  38 H     1.0000    6     1.008   18.559911    6.381099    1.679887
  39 C     6.0000    6    12.011   20.727951   14.318840   18.682617
  40 C     6.0000    6    12.011   18.249356   14.844570   20.080901
  41 H     1.0000    6     1.008   17.104762   13.377502   19.886985
  42 H     1.0000    6     1.008   17.412373   16.334883   19.320326
  43 C     6.0000    6    12.011   18.713548   15.338712   22.911801
  44 H     1.0000    6     1.008   17.070488   15.685175   23.778662
  45 C     6.0000    6    12.011   19.994130   13.025055   24.118456
  46 H     1.0000    6     1.008   20.299468   13.346051   25.936036
  47 H     1.0000    6     1.008   18.877213   11.531887   23.966894
  48 C     6.0000    6    12.011   22.511400   12.508358   22.776342
  49 H     1.0000    6     1.008   23.330506   10.987945   23.543454
  50 C     6.0000    6    12.011   22.007989   12.013681   19.960268
  51 H     1.0000    6     1.008   20.903963   10.513905   19.781974
  52 H     1.0000    6     1.008   23.626225   11.645664   19.096542
  53 C     6.0000    6    12.011   22.500491   16.601155   19.047651
  54 H     1.0000    6     1.008   21.733425   18.118169   18.266458
  55 H     1.0000    6     1.008   24.130183   16.268809   18.191154
  56 C     6.0000    6    12.011   22.975271   17.101077   21.882167
  57 H     1.0000    6     1.008   24.103631   18.605558   22.067634
  58 C     6.0000    6    12.011   20.481869   17.620526   23.209560
  59 H     1.0000    6     1.008   19.679313   19.140794   22.471516
  60 H     1.0000    6     1.008   20.790336   17.946497   25.025757
  61 C     6.0000    6    12.011   24.254865   14.795794   23.083878
  62 H     1.0000    6     1.008   25.894978   14.466373   22.246351
  63 H     1.0000    6     1.008   24.574358   15.116265   24.899171

----------------------------------------------
CARTESIAN COORDINATES OF FRAGMENTS (ANGSTROEM)
----------------------------------------------

 FRAGMENT 1 

 FRAGMENT 2 

 FRAGMENT 3 

 FRAGMENT 4 

 FRAGMENT 5 

 FRAGMENT 6 
  C     9.674114    5.786946    5.671998
  C    10.838988    5.937057    6.307297
  H    11.625280    5.850045    5.781307
  C    11.033050    6.226963    7.756160
  H    11.479258    5.563590    8.269299
  C    10.636408    7.342178    8.413564
  C     9.901915    8.443438    7.728235
  H    10.307283    9.302318    7.705738
  C     8.710800    8.298727    7.144286
  H     8.312540    9.079626    6.778112
  C     7.954860    7.037744    7.014673
  H     7.088930    7.009127    7.404357
  C     8.381665    5.935438    6.398299
  H     7.810630    5.176666    6.424481
  C     9.569828    5.415060    4.180727
  C     8.921158    6.591160    3.443570
  H     8.026663    6.767888    3.829289
  H     9.474162    7.402760    3.568431
  C     8.780993    6.297203    1.950331
  H     8.355963    7.079521    1.494983
  C    10.132685    6.027540    1.331483
  H    10.706610    6.828986    1.423104
  H    10.024448    5.834265    0.366596
  C    10.797041    4.838699    2.021845
  H    11.698331    4.675841    1.620378
  C    10.946354    5.154816    3.531282
  H    11.386255    4.393057    3.985505
  H    11.520769    5.953004    3.645513
  C     8.698790    4.142084    3.972879
  H     9.128405    3.369635    4.418806
  H     7.808416    4.278582    4.383598
  C     8.534346    3.845159    2.471962
  H     7.958545    3.036442    2.351826
  C     7.887058    5.045760    1.768524
  H     6.990908    5.215863    2.153342
  H     7.777803    4.849724    0.804312
  C     9.919573    3.588366    1.851089
  H    10.348131    2.814931    2.296313
  H     9.821482    3.376732    0.888958
  C    10.968759    7.577204    9.886415
  C     9.657143    7.855408   10.626355
  H     9.051450    7.079069   10.523739
  H     9.214231    8.644048   10.223876
  C     9.902783    8.116897   12.124403
  H     9.033313    8.300237   12.583126
  C    10.580438    6.892562   12.762937
  H    10.742016    7.062426   13.724759
  H     9.989391    6.102412   12.682734
  C    11.912520    6.619138   12.052721
  H    12.345972    5.814570   12.458659
  C    11.646126    6.357366   10.562519
  H    11.061901    5.563719   10.468170
  H    12.502460    6.162620   10.105455
  C    11.906747    8.784953   10.079583
  H    11.500833    9.587722    9.666193
  H    12.769143    8.609083    9.626344
  C    12.157990    9.049500   11.579544
  H    12.755092    9.845637   11.677689
  C    10.838538    9.324381   12.281970
  H    10.413844   10.128872   11.891414
  H    11.001772    9.496877   13.243060
  C    12.835122    7.829597   12.215462
  H    13.703032    7.655275   11.772262
  H    13.004190    7.999183   13.176074

--------------------------------
INTERNAL COORDINATES (ANGSTROEM)
--------------------------------
 C      0   0   0     0.000000000000     0.00000000     0.00000000
 C      1   0   0     1.335316279987     0.00000000     0.00000000
 H      2   1   0     0.949995619731   116.63568539     0.00000000
 C      2   1   3     1.490271633444   126.72774967   180.00059175
 H      4   2   1     0.949987868193   116.77365815   116.46112058
 C      4   2   1     1.353960631483   126.45083228   296.46021536
 C      6   4   2     1.490613763820   121.98106181     1.29319480
 H      7   6   4     0.950002202541   117.94116824   241.28774010
 C      7   6   4     1.334425963232   124.11821816    61.28534210
 H      9   7   6     0.949998775829   116.98329199   176.75604347
 C      9   7   6     1.475914272462   126.03362524   356.75669448
 H     11   9   7     0.950003851279   117.16602838   120.83680733
 C     11   9   7     1.333100871479   125.66766336   300.83860899
 H     13  11   9     0.950000745438   117.08053889   177.06699349
 C      1   2   3     1.540475239085   123.14535206     3.29211940
 C     15   1   2     1.532117626538   108.00598163   244.48935052
 H     16  15   1     0.990016786711   109.39667782   300.98058108
 H     16  15   1     0.989999117847   109.39772201    59.11383332
 C     16  15   1     1.528338855161   111.17825343   180.04753802
 H     19  16  15     1.000006877540   109.47520018   180.00801913
 C     19  16  15     1.510881280424   110.63834177   300.74097727
 H     21  19  16     0.990000002112   109.64842670   298.29847745
 H     21  19  16     0.989988584057   109.64802787   179.68981584
 C     21  19  16     1.526863290888   110.06219217    58.99397096
 H     24  21  19     1.000011072115   109.72104823   181.08812684
 C     15   1   2     1.544127448185   112.79863387     3.42791247
 H     26  15   1     0.990004140199   109.44026841    61.30122705
 H     26  15   1     0.990002725718   109.44034801   303.08799399
 C     15   1   2     1.556398369674   111.38384718   124.74478699
 H     29  15   1     0.989998684421   109.58178018   297.07148737
 H     29  15   1     0.989993768082   109.58230665    55.55432756
 C     29  15   1     1.538817118975   110.35772757   176.31265735
 H     32  29  15     1.000001318092   109.55772234   181.10735866
 C     32  29  15     1.534682226387   109.94948311   301.56265148
 H     34  32  29     0.990002397084   109.75750460   299.14798496
 H     34  32  29     0.989985630838   109.75883185   180.32664987
 C     24  21  19     1.537023198735   109.55767611    60.57274216
 H     37  24  21     0.989993974105   109.78168316   179.90464770
 H     37  24  21     0.990003462316   109.78123059    61.03765723
 C      6   4   2     1.528065599403   122.07078425   184.10932198
 C     40   6   4     1.531419341876   107.90107035   234.17926792
 H     41  40   6     0.989998129607   109.35737821    59.51450598
 H     41  40   6     0.990006785222   109.35706705   301.45642024
 C     41  40   6     1.540410113257   111.35509067   180.48570576
 H     44  41  40     1.000009213572   109.79026476   179.70202073
 C     44  41  40     1.538160641938   109.80664641   300.50090379
 H     46  44  41     0.989981206016   109.79466280   179.73983226
 H     46  44  41     0.990003080762   109.79381746   298.63348310
 C     46  44  41     1.534147941092   109.40347513    59.18622609
 H     49  46  44     0.999997981384   109.38000003   180.87753387
 C     49  46  44     1.536291750946   109.19938181   300.54532250
 H     51  49  46     0.989998053046   109.35188890   299.17663111
 H     51  49  46     0.990020921076   109.35089832   181.13118537
 C     40   6   4     1.541360766131   111.94203650   114.78970021
 H     54  40   6     0.989997744875   109.48314410    55.79578424
 H     54  40   6     0.989991267051   109.48374413   297.49962174
 C     54  40   6     1.543693998751   110.79938258   176.64707863
 H     57  54  40     0.999998681098   109.20700481   180.97458803
 C     57  54  40     1.519840593596   109.80236532   300.69420233
 H     59  57  54     0.990002399923   109.69825971   298.89834252
 H     59  57  54     0.989997069123   109.69695859   180.19364316
 C     49  46  44     1.530650212872   109.46303661    61.04924550
 H     62  49  46     0.989990993789   109.97287022   179.07952324
 H     62  49  46     0.990009502259   109.97212994    59.83766864

---------------------------
INTERNAL COORDINATES (A.U.)
---------------------------
 C      0   0   0     0.000000000000     0.00000000     0.00000000
 C      1   0   0     2.523382071342     0.00000000     0.00000000
 H      2   1   0     1.795231549716   116.63568539     0.00000000
 C      2   1   3     2.816205252361   126.72774967   180.00059175
 H      4   2   1     1.795216901433   116.77365815   116.46112058
 C      4   2   1     2.558614789613   126.45083228   296.46021536
 C      6   4   2     2.816851785074   121.98106181     1.29319480
 H      7   6   4     1.795243989425   117.94116824   241.28774010
 C      7   6   4     2.521699616502   124.11821816    61.28534210
 H      9   7   6     1.795237513878   116.98329199   176.75604347
 C      9   7   6     2.789073772099   126.03362524   356.75669448
 H     11   9   7     1.795247105088   117.16602838   120.83680733
 C     11   9   7     2.519195555986   125.66766336   300.83860899
 H     13  11   9     1.795241235899   117.08053889   177.06699349
 C      1   2   3     2.911076317957   123.14535206     3.29211940
 C     15   1   2     2.895282719111   108.00598163   244.48935052
 H     16  15   1     1.870860594869   109.39667782   300.98058108
 H     16  15   1     1.870827205554   109.39772201    59.11383332
 C     16  15   1     2.888141876085   111.17825343   180.04753802
 H     19  16  15     1.889739130589   109.47520018   180.00801913
 C     19  16  15     2.855151840870   110.63834177   300.74097727
 H     21  19  16     1.870828876573   109.64842670   298.29847745
 H     21  19  16     1.870807299576   109.64802787   179.68981584
 C     21  19  16     2.885353463716   110.06219217    58.99397096
 H     24  21  19     1.889747057187   109.72104823   181.08812684
 C     15   1   2     2.917977992940   112.79863387     3.42791247
 H     26  15   1     1.870836696424   109.44026841    61.30122705
 H     26  15   1     1.870834023443   109.44034801   303.08799399
 C     15   1   2     2.941166673965   111.38384718   124.74478699
 H     29  15   1     1.870826386498   109.58178018   297.07148737
 H     29  15   1     1.870817095964   109.58230665    55.55432756
 C     29  15   1     2.907942925052   110.35772757   176.31265735
 H     32  29  15     1.889728624754   109.55772234   181.10735866
 C     32  29  15     2.900129110468   109.94948311   301.56265148
 H     34  32  29     1.870833402415   109.75750460   299.14798496
 H     34  32  29     1.870801718800   109.75883185   180.32664987
 C     24  21  19     2.904552907092   109.55767611    60.57274216
 H     37  24  21     1.870817485292   109.78168316   179.90464770
 H     37  24  21     1.870835415411   109.78123059    61.03765723
 C      6   4   2     2.887625497537   122.07078425   184.10932198
 C     40   6   4     2.893963152336   107.90107035   234.17926792
 H     41  40   6     1.870825338052   109.35737821    59.51450598
 H     41  40   6     1.870841694793   109.35706705   301.45642024
 C     41  40   6     2.910953247979   111.35509067   180.48570576
 H     44  41  40     1.889743545049   109.79026476   179.70202073
 C     44  41  40     2.906702363239   109.80664641   300.50090379
 H     46  44  41     1.870793357098   109.79466280   179.73983226
 H     46  44  41     1.870834694378   109.79381746   298.63348310
 C     46  44  41     2.899119457583   109.40347513    59.18622609
 H     49  46  44     1.889722319290   109.38000003   180.87753387
 C     49  46  44     2.903170671090   109.19938181   300.54532250
 H     51  49  46     1.870825193372   109.35188890   299.17663111
 H     51  49  46     1.870868407686   109.35089832   181.13118537
 C     40   6   4     2.912749721559   111.94203650   114.78970021
 H     54  40   6     1.870824611013   109.48314410    55.79578424
 H     54  40   6     1.870812369700   109.48374413   297.49962174
 C     54  40   6     2.917158892217   110.79938258   176.64707863
 H     57  54  40     1.889723641558   109.20700481   180.97458803
 C     57  54  40     2.872082489112   109.80236532   300.69420233
 H     59  57  54     1.870833407779   109.69825971   298.89834252
 H     59  57  54     1.870823334027   109.69695859   180.19364316
 C     49  46  44     2.892509709157   109.46303661    61.04924550
 H     62  49  46     1.870811853310   109.97287022   179.07952324
 H     62  49  46     1.870846829250   109.97212994    59.83766864

---------------------
BASIS SET INFORMATION
---------------------
There are 2 groups of distinct atoms

 Group   1 Type C   : 11s6p2d contracted to 5s3p2d pattern {62111/411/11}
 Group   2 Type H   : 5s1p contracted to 3s1p pattern {311/1}

Atom   0C    basis set group =>   1
Atom   1C    basis set group =>   1
Atom   2H    basis set group =>   2
Atom   3C    basis set group =>   1
Atom   4H    basis set group =>   2
Atom   5C    basis set group =>   1
Atom   6C    basis set group =>   1
Atom   7H    basis set group =>   2
Atom   8C    basis set group =>   1
Atom   9H    basis set group =>   2
Atom  10C    basis set group =>   1
Atom  11H    basis set group =>   2
Atom  12C    basis set group =>   1
Atom  13H    basis set group =>   2
Atom  14C    basis set group =>   1
Atom  15C    basis set group =>   1
Atom  16H    basis set group =>   2
Atom  17H    basis set group =>   2
Atom  18C    basis set group =>   1
Atom  19H    basis set group =>   2
Atom  20C    basis set group =>   1
Atom  21H    basis set group =>   2
Atom  22H    basis set group =>   2
Atom  23C    basis set group =>   1
Atom  24H    basis set group =>   2
Atom  25C    basis set group =>   1
Atom  26H    basis set group =>   2
Atom  27H    basis set group =>   2
Atom  28C    basis set group =>   1
Atom  29H    basis set group =>   2
Atom  30H    basis set group =>   2
Atom  31C    basis set group =>   1
Atom  32H    basis set group =>   2
Atom  33C    basis set group =>   1
Atom  34H    basis set group =>   2
Atom  35H    basis set group =>   2
Atom  36C    basis set group =>   1
Atom  37H    basis set group =>   2
Atom  38H    basis set group =>   2
Atom  39C    basis set group =>   1
Atom  40C    basis set group =>   1
Atom  41H    basis set group =>   2
Atom  42H    basis set group =>   2
Atom  43C    basis set group =>   1
Atom  44H    basis set group =>   2
Atom  45C    basis set group =>   1
Atom  46H    basis set group =>   2
Atom  47H    basis set group =>   2
Atom  48C    basis set group =>   1
Atom  49H    basis set group =>   2
Atom  50C    basis set group =>   1
Atom  51H    basis set group =>   2
Atom  52H    basis set group =>   2
Atom  53C    basis set group =>   1
Atom  54H    basis set group =>   2
Atom  55H    basis set group =>   2
Atom  56C    basis set group =>   1
Atom  57H    basis set group =>   2
Atom  58C    basis set group =>   1
Atom  59H    basis set group =>   2
Atom  60H    basis set group =>   2
Atom  61C    basis set group =>   1
Atom  62H    basis set group =>   2
Atom  63H    basis set group =>   2
---------------------------------
AUXILIARY/J BASIS SET INFORMATION
---------------------------------
There are 2 groups of distinct atoms

 Group   1 Type C   : 12s5p4d2f1g contracted to 6s4p3d1f1g pattern {711111/2111/211/2/1}
 Group   2 Type H   : 5s2p1d contracted to 3s1p1d pattern {311/2/1}

Atom   0C    basis set group =>   1
Atom   1C    basis set group =>   1
Atom   2H    basis set group =>   2
Atom   3C    basis set group =>   1
Atom   4H    basis set group =>   2
Atom   5C    basis set group =>   1
Atom   6C    basis set group =>   1
Atom   7H    basis set group =>   2
Atom   8C    basis set group =>   1
Atom   9H    basis set group =>   2
Atom  10C    basis set group =>   1
Atom  11H    basis set group =>   2
Atom  12C    basis set group =>   1
Atom  13H    basis set group =>   2
Atom  14C    basis set group =>   1
Atom  15C    basis set group =>   1
Atom  16H    basis set group =>   2
Atom  17H    basis set group =>   2
Atom  18C    basis set group =>   1
Atom  19H    basis set group =>   2
Atom  20C    basis set group =>   1
Atom  21H    basis set group =>   2
Atom  22H    basis set group =>   2
Atom  23C    basis set group =>   1
Atom  24H    basis set group =>   2
Atom  25C    basis set group =>   1
Atom  26H    basis set group =>   2
Atom  27H    basis set group =>   2
Atom  28C    basis set group =>   1
Atom  29H    basis set group =>   2
Atom  30H    basis set group =>   2
Atom  31C    basis set group =>   1
Atom  32H    basis set group =>   2
Atom  33C    basis set group =>   1
Atom  34H    basis set group =>   2
Atom  35H    basis set group =>   2
Atom  36C    basis set group =>   1
Atom  37H    basis set group =>   2
Atom  38H    basis set group =>   2
Atom  39C    basis set group =>   1
Atom  40C    basis set group =>   1
Atom  41H    basis set group =>   2
Atom  42H    basis set group =>   2
Atom  43C    basis set group =>   1
Atom  44H    basis set group =>   2
Atom  45C    basis set group =>   1
Atom  46H    basis set group =>   2
Atom  47H    basis set group =>   2
Atom  48C    basis set group =>   1
Atom  49H    basis set group =>   2
Atom  50C    basis set group =>   1
Atom  51H    basis set group =>   2
Atom  52H    basis set group =>   2
Atom  53C    basis set group =>   1
Atom  54H    basis set group =>   2
Atom  55H    basis set group =>   2
Atom  56C    basis set group =>   1
Atom  57H    basis set group =>   2
Atom  58C    basis set group =>   1
Atom  59H    basis set group =>   2
Atom  60H    basis set group =>   2
Atom  61C    basis set group =>   1
Atom  62H    basis set group =>   2
Atom  63H    basis set group =>   2
---------------------------------
AUXILIARY/C BASIS SET INFORMATION
---------------------------------
There are 2 groups of distinct atoms

 Group   1 Type C   : 8s6p5d3f1g contracted to 8s6p4d3f1g pattern {11111111/111111/2111/111/1}
 Group   2 Type H   : 4s3p2d contracted to 4s2p1d pattern {1111/21/2}

Atom   0C    basis set group =>   1
Atom   1C    basis set group =>   1
Atom   2H    basis set group =>   2
Atom   3C    basis set group =>   1
Atom   4H    basis set group =>   2
Atom   5C    basis set group =>   1
Atom   6C    basis set group =>   1
Atom   7H    basis set group =>   2
Atom   8C    basis set group =>   1
Atom   9H    basis set group =>   2
Atom  10C    basis set group =>   1
Atom  11H    basis set group =>   2
Atom  12C    basis set group =>   1
Atom  13H    basis set group =>   2
Atom  14C    basis set group =>   1
Atom  15C    basis set group =>   1
Atom  16H    basis set group =>   2
Atom  17H    basis set group =>   2
Atom  18C    basis set group =>   1
Atom  19H    basis set group =>   2
Atom  20C    basis set group =>   1
Atom  21H    basis set group =>   2
Atom  22H    basis set group =>   2
Atom  23C    basis set group =>   1
Atom  24H    basis set group =>   2
Atom  25C    basis set group =>   1
Atom  26H    basis set group =>   2
Atom  27H    basis set group =>   2
Atom  28C    basis set group =>   1
Atom  29H    basis set group =>   2
Atom  30H    basis set group =>   2
Atom  31C    basis set group =>   1
Atom  32H    basis set group =>   2
Atom  33C    basis set group =>   1
Atom  34H    basis set group =>   2
Atom  35H    basis set group =>   2
Atom  36C    basis set group =>   1
Atom  37H    basis set group =>   2
Atom  38H    basis set group =>   2
Atom  39C    basis set group =>   1
Atom  40C    basis set group =>   1
Atom  41H    basis set group =>   2
Atom  42H    basis set group =>   2
Atom  43C    basis set group =>   1
Atom  44H    basis set group =>   2
Atom  45C    basis set group =>   1
Atom  46H    basis set group =>   2
Atom  47H    basis set group =>   2
Atom  48C    basis set group =>   1
Atom  49H    basis set group =>   2
Atom  50C    basis set group =>   1
Atom  51H    basis set group =>   2
Atom  52H    basis set group =>   2
Atom  53C    basis set group =>   1
Atom  54H    basis set group =>   2
Atom  55H    basis set group =>   2
Atom  56C    basis set group =>   1
Atom  57H    basis set group =>   2
Atom  58C    basis set group =>   1
Atom  59H    basis set group =>   2
Atom  60H    basis set group =>   2
Atom  61C    basis set group =>   1
Atom  62H    basis set group =>   2
Atom  63H    basis set group =>   2

Checking for AutoStart:
The File: 6.gbw exists
Trying to determine its content:
     ... Fine, the file contains calculation information
     ... Fine, the calculation information was read
     ... Fine, the file contains a basis set
     ... Fine, the basis set was read
     ... Fine, the file contains a geometry
     ... Fine, the geometry was read
     ... Fine, the file contains a set of orbitals
     ... Fine, the orbitals can be read
     => possible old guess file was deleted
     => GBW file was renamed to GES file
     => GES file is set as startup file
     => Guess is set to MORead
     ... now leaving AutoStart



           ************************************************************
           *        Program running with 16 parallel MPI-processes    *
           *              working on a common directory               *
           ************************************************************
------------------------------------------------------------------------------
                             ORCA STARTUP CALCULATIONS
                           -- RI-GTO INTEGRALS CHOSEN --
------------------------------------------------------------------------------
------------------------------------------------------------------------------
                   ___                                                        
                  /   \      - P O W E R E D   B Y -                         
                 /     \                                                     
                 |  |  |   _    _      __       _____    __    __             
                 |  |  |  | |  | |    /  \     |  _  \  |  |  /  |          
                  \  \/   | |  | |   /    \    | | | |  |  | /  /          
                 / \  \   | |__| |  /  /\  \   | |_| |  |  |/  /          
                |  |  |   |  __  | /  /__\  \  |    /   |      \           
                |  |  |   | |  | | |   __   |  |    \   |  |\   \          
                \     /   | |  | | |  |  |  |  | |\  \  |  | \   \       
                 \___/    |_|  |_| |__|  |__|  |_| \__\ |__|  \__/        
                                                                              
                      - O R C A' S   B I G   F R I E N D -                    
                                      &                                       
                       - I N T E G R A L  F E E D E R -                       
                                                                              
 v1 FN, 2020, v2 2021                                                         
------------------------------------------------------------------------------


----------------------
SHARK INTEGRAL PACKAGE
----------------------

Number of atoms                             ...     64
Number of basis functions                   ...    888
Number of shells                            ...    424
Maximum angular momentum                    ...      2
Integral batch strategy                     ... SHARK/LIBINT Hybrid
RI-J (if used) integral strategy            ... SPLIT-RIJ (Revised 2003 algorithm where possible)
Printlevel                                  ...      1
Contraction scheme used                     ... SEGMENTED contraction
Prescreening option                         ... SCHWARTZ
   Thresh                                   ... 1.000e-12
   Tcut                                     ... 1.000e-14
   Tpresel                                  ... 1.000e-14 
Coulomb Range Separation                    ... NOT USED
Exchange Range Separation                   ... NOT USED
Multipole approximations                    ... NOT USED
Finite Nucleus Model                        ... NOT USED
CABS basis                                  ... NOT available
Auxiliary Coulomb fitting basis             ... AVAILABLE
   # of basis functions in Aux-J            ...   1768
   # of shells in Aux-J                     ...    600
   Maximum angular momentum in Aux-J        ...      4
Auxiliary J/K fitting basis                 ... NOT available
Auxiliary Correlation fitting basis         ... AVAILABLE
   # of basis functions in Aux-C            ...   2668
   # of shells in Aux-C                     ...    868
   Maximum angular momentum in Aux-C        ...      4
Auxiliary 'external' fitting basis          ... NOT available

Calculating pre-screening integrals         ... done (  0.0 sec) Dimension = 424
Organizing shell pair data                  ... done (  0.7 sec)
Shell pair information
Total number of shell pairs                 ...     90100
Shell pairs after pre-screening             ...     61615
Total number of primitive shell pairs       ...    280850
Primitive shell pairs kept                  ...    128706
          la=0 lb=0:  20496 shell pairs
          la=1 lb=0:  20822 shell pairs
          la=1 lb=1:   5307 shell pairs
          la=2 lb=0:   9278 shell pairs
          la=2 lb=1:   4655 shell pairs
          la=2 lb=2:   1057 shell pairs

Calculating one electron integrals          ... done (  0.1 sec)
Calculating RI/J V-Matrix + Cholesky decomp.... done (  0.2 sec)
Calculating RI/C V-Matrix + Cholesky decomp.... done (  0.4 sec)
Calculating Nuclear repulsion               ... done (  0.0 sec) ENN=   2706.556036394270 Eh

-------------------
DFT GRID GENERATION
-------------------

General Integration Accuracy     IntAcc      ... 4.388
Radial Grid Type                 RadialGrid  ... OptM3 with GC (2021)
Angular Grid (max. ang.)         AngularGrid ... 4 (Lebedev-302)
Angular grid pruning method      GridPruning ... 4 (adaptive)
Weight generation scheme         WeightScheme... mBecke (2022)
Basis function cutoff            BFCut       ... 1.0000e-12
Integration weight cutoff        WCut        ... 1.0000e-14
Partially contracted basis set               ... off
Rotationally invariant grid construction     ... off
Angular grids for H and He will be reduced by one unit

Total number of grid points                  ...   276700
Total number of batches                      ...     4354
Average number of points per batch           ...       63
Average number of grid points per atom       ...     4323

--------------------
COSX GRID GENERATION
--------------------

GRIDX 1
-------
General Integration Accuracy     IntAcc      ... 3.816
Radial Grid Type                 RadialGrid  ... OptM3 with GC (2021)
Angular Grid (max. ang.)         AngularGrid ... 1 (Lebedev-50)
Angular grid pruning method      GridPruning ... 4 (adaptive)
Weight generation scheme         WeightScheme... mBecke (2022)
Basis function cutoff            BFCut       ... 1.0000e-12
Integration weight cutoff        WCut        ... 1.0000e-14
Partially contracted basis set               ... on
Rotationally invariant grid construction     ... off
Angular grids for H and He will NOT be reduced by one unit

Total number of grid points                  ...    40345
Total number of batches                      ...      356
Average number of points per batch           ...      113
Average number of grid points per atom       ...      630
UseSFitting                                  ... on

GRIDX 2
-------
General Integration Accuracy     IntAcc      ... 4.020
Radial Grid Type                 RadialGrid  ... OptM3 with GC (2021)
Angular Grid (max. ang.)         AngularGrid ... 2 (Lebedev-110)
Angular grid pruning method      GridPruning ... 4 (adaptive)
Weight generation scheme         WeightScheme... mBecke (2022)
Basis function cutoff            BFCut       ... 1.0000e-12
Integration weight cutoff        WCut        ... 1.0000e-14
Partially contracted basis set               ... on
Rotationally invariant grid construction     ... off
Angular grids for H and He will NOT be reduced by one unit

Total number of grid points                  ...    97754
Total number of batches                      ...      798
Average number of points per batch           ...      122
Average number of grid points per atom       ...     1527
UseSFitting                                  ... on

GRIDX 3
-------
General Integration Accuracy     IntAcc      ... 4.338
Radial Grid Type                 RadialGrid  ... OptM3 with GC (2021)
Angular Grid (max. ang.)         AngularGrid ... 3 (Lebedev-194)
Angular grid pruning method      GridPruning ... 4 (adaptive)
Weight generation scheme         WeightScheme... mBecke (2022)
Basis function cutoff            BFCut       ... 1.0000e-12
Integration weight cutoff        WCut        ... 1.0000e-14
Partially contracted basis set               ... on
Rotationally invariant grid construction     ... off
Angular grids for H and He will NOT be reduced by one unit

Total number of grid points                  ...   208618
Total number of batches                      ...     1665
Average number of points per batch           ...      125
Average number of grid points per atom       ...     3260
UseSFitting                                  ... on
Initializing property integral containers    ... done (  0.0 sec)

SHARK setup successfully completed in   5.9 seconds

Maximum memory used throughout the entire STARTUP-calculation: 139.2 MB


           ************************************************************
           *        Program running with 16 parallel MPI-processes    *
           *              working on a common directory               *
           ************************************************************

------------------------------------------------------------------------------
                         ORCA PROPERTY INTEGRAL CALCULATIONS
------------------------------------------------------------------------------

GBWName                                   ... 6.gbw
Number of atoms                           ...     64
Number of basis functions                 ...    888
Max core memory                           ...   4000 MB

Dipole integrals                          ... YES
Quadrupole integrals                      ...  NO
Linear Momentum integrals                 ...  NO
Angular Momentum integrals                ...  NO
Higher Moments length integrals           ...  NO
Higher Moments velocity integrals         ...  NO
Kinetic energy integrals                  ...  NO
GIAO Right Hand Sides                     ...  NO
GIAO dipole derivative integrals          ...  NO
SOC integrals                             ...  NO
EPR diamagnetic integrals (GIAO)          ...  NO
EPR gauge integrals                       ...  NO
Field gradient integrals                  ...  NO (   0 nuclei)
Spin-dipole/Fermi contact integrals       ...  NO (   0 nuclei)
Nucleus-orbit integrals                   ...  NO (   0 nuclei)
Geometric perturbations                   ...  NO (  64 nuclei)
Electric origin: ( 19.1587, 12.4368, 13.3042) 
Magnetic origin: (  0.0000,  0.0000,  0.0000) 

Calculating integrals                     ... Electric Dipole (Length)     done (  0.1 sec)

Property integrals calculated in   0.2 sec

Maximum memory used throughout the entire PROPINT-calculation: 220.3 MB


           ************************************************************
           *        Program running with 16 parallel MPI-processes    *
           *              working on a common directory               *
           ************************************************************
-------------------------------------------------------------------------------
                                 ORCA GUESS
                   Start orbitals & Density for SCF / CASSCF
-------------------------------------------------------------------------------

------------
SCF SETTINGS
------------
Hamiltonian:
 Ab initio Hamiltonian  Method          .... Hartree-Fock(GTOs)
 RI-approximation to the Coulomb term is turned on
   Number of AuxJ basis functions       .... 1768
   RIJ-COSX (HFX calculated with COS-X)).... on


General Settings:
 Integral files         IntName         .... 6
 Hartree-Fock type      HFTyp           .... RHF
 Total Charge           Charge          ....    0
 Multiplicity           Mult            ....    1
 Number of Electrons    NEL             ....  204
 Basis Dimension        Dim             ....  888
 Nuclear Repulsion      ENuc            ....   2706.5560363943 Eh

Convergence Acceleration:
 AO-DIIS                CNVDIIS         .... on
   Start iteration      DIISMaxIt       ....    12
   Startup error        DIISStart       ....  0.200000
   # of expansion vecs  DIISMaxEq       ....     5
   Bias factor          DIISBfac        ....   1.050
   Max. coefficient     DIISMaxC        ....  10.000
 MO-DIIS                CNVKDIIS        .... off
 Trust-Rad. Augm. Hess. CNVTRAH         .... auto
   Auto Start mean grad. ratio tolernc. ....  1.125000
   Auto Start start iteration           ....     1
   Auto Start num. interpolation iter.  ....    10
   Max. Number of Micro iterations      ....    24
   Max. Number of Macro iterations      .... Maxiter - #DIIS iter
   Number of Davidson start vectors     ....     2
   Converg. threshold    (grad. norm)   ....   2.000e-06
   Grad. Scal. Fac. for Micro threshold ....   0.100
   Minimum threshold for Micro iter.    ....   1.000e-02
   NR start threshold (gradient norm)   ....   1.000e-04
   Initial trust radius                 ....   0.400
   Minimum AH scaling param. (alpha)    ....   1.000
   Maximum AH scaling param. (alpha)    .... 1000.000
   Quad. conv. algorithm                .... NR
   White noise on init. David. guess    .... on
   Maximum white noise                  ....   0.010
   Pseudo random numbers                .... off
   Inactive MOs                         .... canonical
   Orbital update algorithm             .... Taylor
   Preconditioner                       .... Diag
   Full preconditioner red. dimension   ....   250
 SOSCF                  CNVSOSCF        .... on
   Start iteration      SOSCFMaxIt      ....   150
   Startup grad/error   SOSCFStart      ....  0.003300
 Level Shifting         CNVShift        .... on
   Level shift para.    LevelShift      ....    0.2500
   Turn off err/grad.   ShiftErr        ....    0.0010
 Zerner damping         CNVZerner       .... off
 Static damping         CNVDamp         .... on
   Fraction old density DampFac         ....    0.7000
   Max. Damping (<1)    DampMax         ....    0.9800
   Min. Damping (>=0)   DampMin         ....    0.0000
   Turn off err/grad.   DampErr         ....    0.1000

SCF Procedure:
 Maximum # iterations   MaxIter         ....   999
 SCF integral mode      SCFMode         .... Direct
   Integral package                     .... SHARK and LIBINT hybrid scheme
 Reset frequency        DirectResetFreq ....    20
 Integral Threshold     Thresh          ....  1.000e-12 Eh
 Primitive CutOff       TCut            ....  1.000e-14 Eh

Convergence Tolerance:
 Convergence Check Mode ConvCheckMode   .... Total+1el-Energy
 Convergence forced     ConvForced      .... 1
 Energy Change          TolE            ....  1.000e-09 Eh
 1-El. energy change                    ....  1.000e-06 Eh
 Orbital Gradient       TolG            ....  2.000e-06
 Orbital Rotation angle TolX            ....  2.000e-06
 DIIS Error             TolErr          ....  1.000e-08


Diagonalization of the overlap matrix:
Smallest eigenvalue                        ... 1.627e-05
Time for diagonalization                   ...    0.092 sec
Threshold for overlap eigenvalues          ... 1.000e-08
Number of eigenvalues below threshold      ... 0
Time for construction of square roots      ...    0.094 sec
Total time needed                          ...    0.205 sec

---------------------
INITIAL GUESS: MOREAD
---------------------
Guess MOs are being read from file: 6.ges
Input Geometry matches current geometry (good)
Input basis set matches current basis set (good)
MOs were renormalized
MOs were reorthogonalized (Cholesky)
                      ------------------
                      INITIAL GUESS DONE (   0.3 sec)
                      ------------------
             **** ENERGY FILE WAS UPDATED (6.en.tmp) ****
Finished Guess after   1.0 sec
Maximum memory used throughout the entire GUESS-calculation: 94.5 MB


           ************************************************************
           *        Program running with 16 parallel MPI-processes    *
           *              working on a common directory               *
           ************************************************************

-------------------------------------------------------------------------------------------
                                           ORCA LEAN-SCF
                                     memory conserving SCF solver
-------------------------------------------------------------------------------------------

----------------------------------------D-I-I-S--------------------------------------------
Iteration    Energy (Eh)           Delta-E    RMSDP     MaxDP     MaxGrad   Damp  Time(sec)
-------------------------------------------------------------------------------------------
               ***  Starting incremental Fock matrix formation  ***
                            *** Initializing SOSCF(YES,NO) ***
---------------------------------------S-O-S-C-F--------------------------------------
Iteration    Energy (Eh)            Delta-E     RMSDP    MaxDP     MaxGrad    Time(sec)
--------------------------------------------------------------------------------------
    1    -1081.2810559093604752     0.00e+00  7.52e-09  5.44e-07  2.31e-07  11.9
               *** Restarting incremental Fock matrix formation ***
    2    -1081.2810559093859410    -2.55e-11  6.00e-09  4.62e-07  5.85e-08  10.9
                 **** Energy Check signals convergence ****

               *****************************************************
               *                     SUCCESS                       *
               *           SCF CONVERGED AFTER   2 CYCLES          *
               *****************************************************

             **** ENERGY FILE WAS UPDATED (6.en.tmp) ****

----------------
TOTAL SCF ENERGY
----------------

Total Energy       :      -1081.28105590938594 Eh          -29423.15338 eV

Components:
Nuclear Repulsion  :       2706.55603639426954 Eh           73649.13400 eV
Electronic Energy  :      -3787.83709230365548 Eh         -103072.28738 eV
One Electron Energy:      -6849.54546094607485 Eh         -186385.60765 eV
Two Electron Energy:       3061.70836864241937 Eh           83313.32028 eV

Virial components:
Potential Energy   :      -2168.51876302482378 Eh          -59008.39547 eV
Kinetic Energy     :       1087.23770711543762 Eh           29585.24210 eV
Virial Ratio       :          1.99452129817880



---------------
SCF CONVERGENCE
---------------

  Last Energy change         ...    2.5466e-11  Tolerance :   1.0000e-09
  Last MAX-Density change    ...    4.6204e-07  Tolerance :   1.0000e-08
  Last RMS-Density change    ...    5.9957e-09  Tolerance :   1.0000e-09

----------------
ORBITAL ENERGIES
----------------

  NO   OCC          E(Eh)            E(eV) 
   0   2.0000     -11.222397      -305.3769 
   1   2.0000     -11.219928      -305.3098 
   2   2.0000     -11.219007      -305.2847 
   3   2.0000     -11.216634      -305.2201 
   4   2.0000     -11.206165      -304.9353 
   5   2.0000     -11.205212      -304.9093 
   6   2.0000     -11.204291      -304.8843 
   7   2.0000     -11.203362      -304.8590 
   8   2.0000     -11.197566      -304.7013 
   9   2.0000     -11.194737      -304.6243 
  10   2.0000     -11.194588      -304.6202 
  11   2.0000     -11.193619      -304.5939 
  12   2.0000     -11.192557      -304.5649 
  13   2.0000     -11.192280      -304.5574 
  14   2.0000     -11.191375      -304.5328 
  15   2.0000     -11.189560      -304.4834 
  16   2.0000     -11.178619      -304.1857 
  17   2.0000     -11.177450      -304.1539 
  18   2.0000     -11.175466      -304.0999 
  19   2.0000     -11.174650      -304.0777 
  20   2.0000     -11.174282      -304.0677 
  21   2.0000     -11.173868      -304.0564 
  22   2.0000     -11.173381      -304.0431 
  23   2.0000     -11.172436      -304.0174 
  24   2.0000     -11.171934      -304.0038 
  25   2.0000     -11.170862      -303.9746 
  26   2.0000     -11.170607      -303.9677 
  27   2.0000     -11.170472      -303.9640 
  28   2.0000      -1.169445       -31.8222 
  29   2.0000      -1.167028       -31.7564 
  30   2.0000      -1.126723       -30.6597 
  31   2.0000      -1.085959       -29.5504 
  32   2.0000      -1.067061       -29.0362 
  33   2.0000      -1.046675       -28.4815 
  34   2.0000      -1.045220       -28.4419 
  35   2.0000      -1.043113       -28.3845 
  36   2.0000      -1.042673       -28.3726 
  37   2.0000      -1.027877       -27.9699 
  38   2.0000      -1.020605       -27.7721 
  39   2.0000      -0.951769       -25.8989 
  40   2.0000      -0.932682       -25.3796 
  41   2.0000      -0.931052       -25.3352 
  42   2.0000      -0.930566       -25.3220 
  43   2.0000      -0.927634       -25.2422 
  44   2.0000      -0.893150       -24.3039 
  45   2.0000      -0.825108       -22.4523 
  46   2.0000      -0.821766       -22.3614 
  47   2.0000      -0.814981       -22.1768 
  48   2.0000      -0.814221       -22.1561 
  49   2.0000      -0.811397       -22.0792 
  50   2.0000      -0.800253       -21.7760 
  51   2.0000      -0.776338       -21.1252 
  52   2.0000      -0.749794       -20.4029 
  53   2.0000      -0.722799       -19.6684 
  54   2.0000      -0.722107       -19.6495 
  55   2.0000      -0.688209       -18.7271 
  56   2.0000      -0.683262       -18.5925 
  57   2.0000      -0.653639       -17.7864 
  58   2.0000      -0.646134       -17.5822 
  59   2.0000      -0.638354       -17.3705 
  60   2.0000      -0.637712       -17.3530 
  61   2.0000      -0.637192       -17.3389 
  62   2.0000      -0.636622       -17.3234 
  63   2.0000      -0.635931       -17.3046 
  64   2.0000      -0.634293       -17.2600 
  65   2.0000      -0.623437       -16.9646 
  66   2.0000      -0.612055       -16.6549 
  67   2.0000      -0.597133       -16.2488 
  68   2.0000      -0.581711       -15.8292 
  69   2.0000      -0.578121       -15.7315 
  70   2.0000      -0.575932       -15.6719 
  71   2.0000      -0.573184       -15.5971 
  72   2.0000      -0.572067       -15.5667 
  73   2.0000      -0.564559       -15.3624 
  74   2.0000      -0.557728       -15.1766 
  75   2.0000      -0.551126       -14.9969 
  76   2.0000      -0.549034       -14.9400 
  77   2.0000      -0.547990       -14.9116 
  78   2.0000      -0.547694       -14.9035 
  79   2.0000      -0.522601       -14.2207 
  80   2.0000      -0.516576       -14.0568 
  81   2.0000      -0.483422       -13.1546 
  82   2.0000      -0.475122       -12.9287 
  83   2.0000      -0.472889       -12.8680 
  84   2.0000      -0.464564       -12.6414 
  85   2.0000      -0.463751       -12.6193 
  86   2.0000      -0.459908       -12.5147 
  87   2.0000      -0.459357       -12.4997 
  88   2.0000      -0.458305       -12.4711 
  89   2.0000      -0.457151       -12.4397 
  90   2.0000      -0.452398       -12.3104 
  91   2.0000      -0.451917       -12.2973 
  92   2.0000      -0.417182       -11.3521 
  93   2.0000      -0.407103       -11.0778 
  94   2.0000      -0.406065       -11.0496 
  95   2.0000      -0.402302       -10.9472 
  96   2.0000      -0.399603       -10.8738 
  97   2.0000      -0.399413       -10.8686 
  98   2.0000      -0.391697       -10.6586 
  99   2.0000      -0.343375        -9.3437 
 100   2.0000      -0.339817        -9.2469 
 101   2.0000      -0.301426        -8.2022 
 102   0.0000       0.124762         3.3949 
 103   0.0000       0.131598         3.5810 
 104   0.0000       0.135164         3.6780 
 105   0.0000       0.156755         4.2655 
 106   0.0000       0.160279         4.3614 
 107   0.0000       0.163370         4.4455 
 108   0.0000       0.164678         4.4811 
 109   0.0000       0.165663         4.5079 
 110   0.0000       0.169845         4.6217 
 111   0.0000       0.174807         4.7567 
 112   0.0000       0.176980         4.8159 

                    ********************************
                    * MULLIKEN POPULATION ANALYSIS *
                    ********************************

-------------------------
MULLIKEN FRAGMENT CHARGES
-------------------------
 Fragment   0 :   0.000000
 Fragment   1 :   0.000000
 Fragment   2 :   0.000000
 Fragment   3 :   0.000000
 Fragment   4 :   0.000000
 Fragment   5 :  -0.000000
Sum of fragment charges:   -0.0000000

---------------------------------
MULLIKEN FRAGMENT OVERLAP CHARGES
---------------------------------
                  0          1          2          3          4          5    
      0       0.000000   0.000000   0.000000   0.000000   0.000000   0.000000
      1       0.000000   0.000000   0.000000   0.000000   0.000000   0.000000
      2       0.000000   0.000000   0.000000   0.000000   0.000000   0.000000
      3       0.000000   0.000000   0.000000   0.000000   0.000000   0.000000
      4       0.000000   0.000000   0.000000   0.000000   0.000000   0.000000
      5       0.000000   0.000000   0.000000   0.000000   0.000000 248.092448

-----------------------
MULLIKEN ATOMIC CHARGES
-----------------------
   0 C :    0.250903
   1 C :   -0.102603
   2 H :    0.078877
   3 C :   -0.087020
   4 H :    0.078784
   5 C :    0.286576
   6 C :   -0.353357
   7 H :    0.064518
   8 C :   -0.041132
   9 H :    0.065118
  10 C :   -0.062547
  11 H :    0.064999
  12 C :   -0.355814
  13 H :    0.064010
  14 C :    0.355758
  15 C :   -0.471908
  16 H :    0.096308
  17 H :    0.093227
  18 C :    0.342573
  19 H :    0.093209
  20 C :   -0.431619
  21 H :    0.075767
  22 H :    0.091601
  23 C :    0.361630
  24 H :    0.092160
  25 C :   -0.444888
  26 H :    0.086016
  27 H :    0.081976
  28 C :   -0.460375
  29 H :    0.091578
  30 H :    0.084355
  31 C :    0.312791
  32 H :    0.097079
  33 C :   -0.424184
  34 H :    0.074856
  35 H :    0.093798
  36 C :   -0.425002
  37 H :    0.077418
  38 H :    0.090168
  39 C :    0.328089
  40 C :   -0.476967
  41 H :    0.090996
  42 H :    0.097414
  43 C :    0.343477
  44 H :    0.094864
  45 C :   -0.429738
  46 H :    0.091017
  47 H :    0.077492
  48 C :    0.367889
  49 H :    0.091563
  50 C :   -0.440690
  51 H :    0.086385
  52 H :    0.079267
  53 C :   -0.449400
  54 H :    0.084502
  55 H :    0.087783
  56 C :    0.317308
  57 H :    0.095106
  58 C :   -0.428794
  59 H :    0.074013
  60 H :    0.092778
  61 C :   -0.427556
  62 H :    0.076055
  63 H :    0.091541
Sum of atomic charges:   -0.0000000

--------------------------------
MULLIKEN REDUCED ORBITAL CHARGES
--------------------------------
  0 C s       :     3.141182  s :     3.141182
      pz      :     0.736644  p :     2.441105
      px      :     0.807102
      py      :     0.897360
      dz2     :     0.041254  d :     0.166810
      dxz     :     0.063544
      dyz     :     0.016535
      dx2y2   :     0.016906
      dxy     :     0.028570

  1 C s       :     3.064098  s :     3.064098
      pz      :     0.968424  p :     2.914367
      px      :     0.940888
      py      :     1.005055
      dz2     :     0.037378  d :     0.124138
      dxz     :     0.038383
      dyz     :     0.016419
      dx2y2   :     0.015330
      dxy     :     0.016628

  2 H s       :     0.888793  s :     0.888793
      pz      :     0.010593  p :     0.032330
      px      :     0.014111
      py      :     0.007626

  3 C s       :     3.068039  s :     3.068039
      pz      :     0.936381  p :     2.897474
      px      :     1.032417
      py      :     0.928675
      dz2     :     0.036271  d :     0.121508
      dxz     :     0.018574
      dyz     :     0.035561
      dx2y2   :     0.014476
      dxy     :     0.016626

  4 H s       :     0.888643  s :     0.888643
      pz      :     0.010407  p :     0.032572
      px      :     0.010112
      py      :     0.012054

  5 C s       :     3.127299  s :     3.127299
      pz      :     0.745258  p :     2.420975
      px      :     0.848743
      py      :     0.826975
      dz2     :     0.041320  d :     0.165150
      dxz     :     0.025839
      dyz     :     0.052705
      dx2y2   :     0.018431
      dxy     :     0.026855

  6 C s       :     3.245070  s :     3.245070
      pz      :     1.002027  p :     2.989735
      px      :     0.998546
      py      :     0.989162
      dz2     :     0.017490  d :     0.118552
      dxz     :     0.018878
      dyz     :     0.016217
      dx2y2   :     0.028963
      dxy     :     0.037003

  7 H s       :     0.903752  s :     0.903752
      pz      :     0.006858  p :     0.031730
      px      :     0.007765
      py      :     0.017107

  8 C s       :     3.049978  s :     3.049978
      pz      :     0.951112  p :     2.876407
      px      :     0.993813
      py      :     0.931481
      dz2     :     0.013474  d :     0.114746
      dxz     :     0.021112
      dyz     :     0.014973
      dx2y2   :     0.033862
      dxy     :     0.031324

  9 H s       :     0.903592  s :     0.903592
      pz      :     0.008772  p :     0.031290
      px      :     0.007529
      py      :     0.014989

 10 C s       :     3.055460  s :     3.055460
      pz      :     0.959343  p :     2.891519
      px      :     0.956676
      py      :     0.975500
      dz2     :     0.014502  d :     0.115568
      dxz     :     0.011093
      dyz     :     0.025558
      dx2y2   :     0.022460
      dxy     :     0.041955

 11 H s       :     0.903620  s :     0.903620
      pz      :     0.008988  p :     0.031381
      px      :     0.017015
      py      :     0.005378

 12 C s       :     3.260288  s :     3.260288
      pz      :     0.995566  p :     2.975820
      px      :     1.017090
      py      :     0.963163
      dz2     :     0.018513  d :     0.119706
      dxz     :     0.018191
      dyz     :     0.018076
      dx2y2   :     0.036867
      dxy     :     0.028060

 13 H s       :     0.904420  s :     0.904420
      pz      :     0.006762  p :     0.031570
      px      :     0.010952
      py      :     0.013856

 14 C s       :     2.566511  s :     2.566511
      pz      :     0.898474  p :     2.879862
      px      :     1.006169
      py      :     0.975219
      dz2     :     0.052338  d :     0.197869
      dxz     :     0.027456
      dyz     :     0.036557
      dx2y2   :     0.037985
      dxy     :     0.043532

 15 C s       :     3.198035  s :     3.198035
      pz      :     1.033131  p :     3.172358
      px      :     1.090566
      py      :     1.048661
      dz2     :     0.029078  d :     0.101514
      dxz     :     0.016850
      dyz     :     0.022702
      dx2y2   :     0.013952
      dxy     :     0.018932

 16 H s       :     0.875678  s :     0.875678
      pz      :     0.007051  p :     0.028014
      px      :     0.015361
      py      :     0.005602

 17 H s       :     0.879016  s :     0.879016
      pz      :     0.005051  p :     0.027757
      px      :     0.008731
      py      :     0.013975

 18 C s       :     2.655874  s :     2.655874
      pz      :     0.956012  p :     2.856763
      px      :     0.953876
      py      :     0.946876
      dz2     :     0.036231  d :     0.144789
      dxz     :     0.028502
      dyz     :     0.023225
      dx2y2   :     0.024734
      dxy     :     0.032097

 19 H s       :     0.879358  s :     0.879358
      pz      :     0.007411  p :     0.027433
      px      :     0.007074
      py      :     0.012948

 20 C s       :     3.217474  s :     3.217474
      pz      :     1.057050  p :     3.112593
      px      :     1.015143
      py      :     1.040401
      dz2     :     0.023283  d :     0.101552
      dxz     :     0.016201
      dyz     :     0.012273
      dx2y2   :     0.020173
      dxy     :     0.029621

 21 H s       :     0.896749  s :     0.896749
      pz      :     0.005087  p :     0.027483
      px      :     0.009096
      py      :     0.013300

 22 H s       :     0.880942  s :     0.880942
      pz      :     0.017203  p :     0.027457
      px      :     0.004926
      py      :     0.005329

 23 C s       :     2.644764  s :     2.644764
      pz      :     0.944410  p :     2.851237
      px      :     0.954700
      py      :     0.952127
      dz2     :     0.035695  d :     0.142369
      dxz     :     0.021478
      dyz     :     0.029533
      dx2y2   :     0.025958
      dxy     :     0.029705

 24 H s       :     0.880183  s :     0.880183
      pz      :     0.006902  p :     0.027657
      px      :     0.015699
      py      :     0.005056

 25 C s       :     3.141300  s :     3.141300
      pz      :     1.091731  p :     3.203863
      px      :     1.028282
      py      :     1.083850
      dz2     :     0.027567  d :     0.099725
      dxz     :     0.024709
      dyz     :     0.014895
      dx2y2   :     0.012315
      dxy     :     0.020238

 26 H s       :     0.886262  s :     0.886262
      pz      :     0.007756  p :     0.027722
      px      :     0.007747
      py      :     0.012219

 27 H s       :     0.890055  s :     0.890055
      pz      :     0.005159  p :     0.027969
      px      :     0.009663
      py      :     0.013146

 28 C s       :     3.206488  s :     3.206488
      pz      :     1.055326  p :     3.154661
      px      :     1.062088
      py      :     1.037246
      dz2     :     0.026817  d :     0.099227
      dxz     :     0.016863
      dyz     :     0.019524
      dx2y2   :     0.015744
      dxy     :     0.020278

 29 H s       :     0.880671  s :     0.880671
      pz      :     0.007739  p :     0.027751
      px      :     0.007163
      py      :     0.012849

 30 H s       :     0.887523  s :     0.887523
      pz      :     0.007433  p :     0.028122
      px      :     0.015441
      py      :     0.005248

 31 C s       :     2.680807  s :     2.680807
      pz      :     0.945762  p :     2.862948
      px      :     0.957084
      py      :     0.960103
      dz2     :     0.038078  d :     0.143454
      dxz     :     0.028468
      dyz     :     0.023836
      dx2y2   :     0.022607
      dxy     :     0.030466

 32 H s       :     0.875376  s :     0.875376
      pz      :     0.004814  p :     0.027544
      px      :     0.009190
      py      :     0.013541

 33 C s       :     3.224215  s :     3.224215
      pz      :     1.058021  p :     3.102372
      px      :     1.056919
      py      :     0.987432
      dz2     :     0.021083  d :     0.097597
      dxz     :     0.009964
      dyz     :     0.017349
      dx2y2   :     0.024198
      dxy     :     0.025004

 34 H s       :     0.897445  s :     0.897445
      pz      :     0.006726  p :     0.027699
      px      :     0.015795
      py      :     0.005178

 35 H s       :     0.878552  s :     0.878552
      pz      :     0.017073  p :     0.027651
      px      :     0.005282
      py      :     0.005295

 36 C s       :     3.222158  s :     3.222158
      pz      :     1.062183  p :     3.104508
      px      :     0.999274
      py      :     1.043051
      dz2     :     0.020888  d :     0.098337
      dxz     :     0.015715
      dyz     :     0.011352
      dx2y2   :     0.022487
      dxy     :     0.027896

 37 H s       :     0.894940  s :     0.894940
      pz      :     0.007350  p :     0.027642
      px      :     0.007233
      py      :     0.013058

 38 H s       :     0.882208  s :     0.882208
      pz      :     0.016989  p :     0.027624
      px      :     0.004930
      py      :     0.005704

 39 C s       :     2.560041  s :     2.560041
      pz      :     0.910959  p :     2.911770
      px      :     1.000244
      py      :     1.000568
      dz2     :     0.051993  d :     0.200100
      dxz     :     0.037550
      dyz     :     0.028689
      dx2y2   :     0.036258
      dxy     :     0.045610

 40 C s       :     3.198337  s :     3.198337
      pz      :     1.036930  p :     3.177791
      px      :     1.040016
      py      :     1.100845
      dz2     :     0.028705  d :     0.100839
      dxz     :     0.025206
      dyz     :     0.014470
      dx2y2   :     0.011640
      dxy     :     0.020818

 41 H s       :     0.881211  s :     0.881211
      pz      :     0.004989  p :     0.027794
      px      :     0.010133
      py      :     0.012671

 42 H s       :     0.874412  s :     0.874412
      pz      :     0.007339  p :     0.028174
      px      :     0.007969
      py      :     0.012866

 43 C s       :     2.662501  s :     2.662501
      pz      :     0.951913  p :     2.851834
      px      :     0.951525
      py      :     0.948396
      dz2     :     0.035048  d :     0.142188
      dxz     :     0.023520
      dyz     :     0.027928
      dx2y2   :     0.024554
      dxy     :     0.031138

 44 H s       :     0.877508  s :     0.877508
      pz      :     0.007523  p :     0.027628
      px      :     0.014936
      py      :     0.005169

 45 C s       :     3.225713  s :     3.225713
      pz      :     1.055053  p :     3.105329
      px      :     1.012924
      py      :     1.037351
      dz2     :     0.022619  d :     0.098697
      dxz     :     0.016648
      dyz     :     0.011455
      dx2y2   :     0.018579
      dxy     :     0.029396

 46 H s       :     0.881361  s :     0.881361
      pz      :     0.017215  p :     0.027621
      px      :     0.005154
      py      :     0.005252

 47 H s       :     0.894875  s :     0.894875
      pz      :     0.005064  p :     0.027633
      px      :     0.009438
      py      :     0.013131

 48 C s       :     2.635087  s :     2.635087
      pz      :     0.947987  p :     2.853055
      px      :     0.955459
      py      :     0.949610
      dz2     :     0.035493  d :     0.143968
      dxz     :     0.030591
      dyz     :     0.022075
      dx2y2   :     0.023540
      dxy     :     0.032270

 49 H s       :     0.880927  s :     0.880927
      pz      :     0.006892  p :     0.027510
      px      :     0.007238
      py      :     0.013380

 50 C s       :     3.134358  s :     3.134358
      pz      :     1.090337  p :     3.205614
      px      :     1.070478
      py      :     1.044800
      dz2     :     0.027192  d :     0.100717
      dxz     :     0.019032
      dyz     :     0.022008
      dx2y2   :     0.012405
      dxy     :     0.020080

 51 H s       :     0.885823  s :     0.885823
      pz      :     0.004980  p :     0.027792
      px      :     0.009199
      py      :     0.013613

 52 H s       :     0.892933  s :     0.892933
      pz      :     0.007777  p :     0.027801
      px      :     0.014366
      py      :     0.005657

 53 C s       :     3.199954  s :     3.199954
      pz      :     1.046421  p :     3.149828
      px      :     1.065498
      py      :     1.037909
      dz2     :     0.026706  d :     0.099618
      dxz     :     0.018248
      dyz     :     0.018102
      dx2y2   :     0.015009
      dxy     :     0.021554

 54 H s       :     0.887492  s :     0.887492
      pz      :     0.007428  p :     0.028006
      px      :     0.007031
      py      :     0.013547

 55 H s       :     0.884414  s :     0.884414
      pz      :     0.007868  p :     0.027803
      px      :     0.014702
      py      :     0.005233

 56 C s       :     2.674320  s :     2.674320
      pz      :     0.944665  p :     2.863651
      px      :     0.956913
      py      :     0.962073
      dz2     :     0.038533  d :     0.144722
[...]
      dx2y2   :     0.101377
      dxy     :     0.083367
 62 H s       :     0.819207  s :     0.819207
      pz      :     0.025068  p :     0.082513
      px      :     0.035682
      py      :     0.021762
 63 H s       :     0.818852  s :     0.818852
      pz      :     0.039776  p :     0.082546
      px      :     0.021040
      py      :     0.021729


                      *****************************
                      * MAYER POPULATION ANALYSIS *
                      *****************************

  NA   - Mulliken gross atomic population
  ZA   - Total nuclear charge
  QA   - Mulliken gross atomic charge
  VA   - Mayer's total valence
  BVA  - Mayer's bonded valence
  FA   - Mayer's free valence

  ATOM       NA         ZA         QA         VA         BVA        FA
  0 C      5.7496     6.0000     0.2504     3.8161     3.4341     0.3820
  1 C      6.1143     6.0000    -0.1143     3.9140     3.5347     0.3794
  2 H      0.9126     1.0000     0.0874     0.9712     0.9177     0.0535
  3 C      6.1041     6.0000    -0.1041     3.8979     3.5138     0.3841
  4 H      0.9124     1.0000     0.0876     0.9711     0.9177     0.0534
  5 C      5.7181     6.0000     0.2819     3.7732     3.3875     0.3857
  6 C      6.3210     6.0000    -0.3210     4.1568     3.7591     0.3977
  7 H      0.9275     1.0000     0.0725     0.9784     0.9257     0.0527
  8 C      6.0586     6.0000    -0.0586     4.0067     3.6237     0.3830
  9 H      0.9246     1.0000     0.0754     0.9828     0.9281     0.0547
 10 C      6.0817     6.0000    -0.0817     4.0148     3.6318     0.3830
 11 H      0.9249     1.0000     0.0751     0.9834     0.9290     0.0544
 12 C      6.3154     6.0000    -0.3154     4.1462     3.7486     0.3976
 13 H      0.9278     1.0000     0.0722     0.9772     0.9241     0.0530
 14 C      5.7262     6.0000     0.2738     3.6652     3.3488     0.3164
 15 C      6.4060     6.0000    -0.4060     4.1534     3.8362     0.3172
 16 H      0.8853     1.0000     0.1147     0.9776     0.9222     0.0554
 17 H      0.8923     1.0000     0.1077     0.9791     0.9239     0.0553
 18 C      5.7995     6.0000     0.2005     3.6595     3.3497     0.3098
 19 H      0.9138     1.0000     0.0862     0.9452     0.8919     0.0533
 20 C      6.3788     6.0000    -0.3788     4.1270     3.8087     0.3183
 21 H      0.9078     1.0000     0.0922     0.9714     0.9153     0.0561
 22 H      0.8964     1.0000     0.1036     0.9643     0.9090     0.0553
 23 C      5.7779     6.0000     0.2221     3.6844     3.3730     0.3113
 24 H      0.9165     1.0000     0.0835     0.9501     0.8965     0.0536
 25 C      6.4117     6.0000    -0.4117     4.2244     3.8993     0.3251
 26 H      0.8967     1.0000     0.1033     0.9762     0.9213     0.0549
 27 H      0.9026     1.0000     0.0974     0.9775     0.9216     0.0559
 28 C      6.4114     6.0000    -0.4114     4.1801     3.8587     0.3214
 29 H      0.8935     1.0000     0.1065     0.9730     0.9175     0.0555
 30 H      0.8993     1.0000     0.1007     0.9704     0.9142     0.0563
 31 C      5.8170     6.0000     0.1830     3.6976     3.3851     0.3124
 32 H      0.9113     1.0000     0.0887     0.9442     0.8908     0.0534
 33 C      6.3682     6.0000    -0.3682     4.1075     3.7842     0.3233
 34 H      0.9088     1.0000     0.0912     0.9735     0.9175     0.0560
 35 H      0.8949     1.0000     0.1051     0.9643     0.9090     0.0552
 36 C      6.3737     6.0000    -0.3737     4.1271     3.8037     0.3233
 37 H      0.9069     1.0000     0.0931     0.9712     0.9153     0.0560
 38 H      0.8981     1.0000     0.1019     0.9655     0.9101     0.0553
 39 C      5.7543     6.0000     0.2457     3.7197     3.4037     0.3160
 40 C      6.4130     6.0000    -0.4130     4.1351     3.8177     0.3174
 41 H      0.8960     1.0000     0.1040     0.9769     0.9212     0.0557
 42 H      0.8869     1.0000     0.1131     0.9779     0.9224     0.0555
 43 C      5.7892     6.0000     0.2108     3.6571     3.3450     0.3120
 44 H      0.9144     1.0000     0.0856     0.9474     0.8938     0.0536
 45 C      6.3759     6.0000    -0.3759     4.1272     3.8053     0.3219
 46 H      0.8981     1.0000     0.1019     0.9654     0.9099     0.0555
 47 H      0.9068     1.0000     0.0932     0.9706     0.9145     0.0561
 48 C      5.7754     6.0000     0.2246     3.6837     3.3738     0.3099
 49 H      0.9169     1.0000     0.0831     0.9482     0.8946     0.0536
 50 C      6.4089     6.0000    -0.4089     4.2302     3.9052     0.3250
 51 H      0.8966     1.0000     0.1034     0.9775     0.9222     0.0553
 52 H      0.9037     1.0000     0.0963     0.9770     0.9217     0.0554
 53 C      6.3942     6.0000    -0.3942     4.1783     3.8576     0.3207
 54 H      0.9001     1.0000     0.0999     0.9702     0.9140     0.0562
 55 H      0.8971     1.0000     0.1029     0.9780     0.9223     0.0557
 56 C      5.8190     6.0000     0.1810     3.6891     3.3781     0.3110
 57 H      0.9130     1.0000     0.0870     0.9452     0.8919     0.0533
 58 C      6.3759     6.0000    -0.3759     4.1208     3.7993     0.3215
 59 H      0.9101     1.0000     0.0899     0.9740     0.9179     0.0560
 60 H      0.8955     1.0000     0.1045     0.9641     0.9090     0.0551
 61 C      6.3668     6.0000    -0.3668     4.1211     3.8008     0.3203
 62 H      0.9083     1.0000     0.0917     0.9720     0.9159     0.0561
 63 H      0.8973     1.0000     0.1027     0.9660     0.9108     0.0553

  Mayer bond orders larger than 0.100000
B(  0-C ,  1-C ) :   1.7396 B(  0-C , 12-C ) :   0.9477 B(  0-C , 14-C ) :   0.8368 
B(  1-C ,  2-H ) :   0.9517 B(  1-C ,  3-C ) :   0.8557 B(  3-C ,  4-H ) :   0.9571 
B(  3-C ,  5-C ) :   1.7154 B(  5-C ,  6-C ) :   0.9325 B(  5-C , 39-C ) :   0.8438 
B(  6-C ,  7-H ) :   0.9635 B(  6-C ,  8-C ) :   1.7826 B(  8-C ,  9-H ) :   0.9499 
B(  8-C , 10-C ) :   0.8996 B( 10-C , 11-H ) :   0.9511 B( 10-C , 12-C ) :   1.7822 
B( 12-C , 13-H ) :   0.9634 B( 14-C , 15-C ) :   0.8511 B( 14-C , 25-C ) :   0.9084 
B( 14-C , 28-C ) :   0.8726 B( 15-C , 16-H ) :   0.9589 B( 15-C , 17-H ) :   0.9607 
B( 15-C , 18-C ) :   0.8697 B( 18-C , 19-H ) :   0.9588 B( 18-C , 20-C ) :   0.8637 
B( 18-C , 33-C ) :   0.8547 B( 20-C , 21-H ) :   0.9578 B( 20-C , 22-H ) :   0.9647 
B( 20-C , 23-C ) :   0.8584 B( 23-C , 24-H ) :   0.9556 B( 23-C , 25-C ) :   0.8667 
B( 23-C , 36-C ) :   0.8651 B( 25-C , 26-H ) :   0.9623 B( 25-C , 27-H ) :   0.9590 
B( 28-C , 29-H ) :   0.9581 B( 28-C , 30-H ) :   0.9517 B( 28-C , 31-C ) :   0.8873 
B( 31-C , 32-H ) :   0.9549 B( 31-C , 33-C ) :   0.8562 B( 31-C , 36-C ) :   0.8672 
B( 33-C , 34-H ) :   0.9581 B( 33-C , 35-H ) :   0.9614 B( 36-C , 37-H ) :   0.9580 
B( 36-C , 38-H ) :   0.9603 B( 39-C , 40-C ) :   0.8690 B( 39-C , 50-C ) :   0.9109 
B( 39-C , 53-C ) :   0.8651 B( 40-C , 41-H ) :   0.9579 B( 40-C , 42-H ) :   0.9566 
B( 40-C , 43-C ) :   0.8648 B( 43-C , 44-H ) :   0.9570 B( 43-C , 45-C ) :   0.8585 
B( 43-C , 58-C ) :   0.8633 B( 45-C , 46-H ) :   0.9627 B( 45-C , 47-H ) :   0.9575 
B( 45-C , 48-C ) :   0.8597 B( 48-C , 49-H ) :   0.9550 B( 48-C , 50-C ) :   0.8712 
B( 48-C , 61-C ) :   0.8593 B( 50-C , 51-H ) :   0.9621 B( 50-C , 52-H ) :   0.9597 
B( 53-C , 54-H ) :   0.9555 B( 53-C , 55-H ) :   0.9579 B( 53-C , 56-C ) :   0.8850 
B( 56-C , 57-H ) :   0.9550 B( 56-C , 58-C ) :   0.8581 B( 56-C , 61-C ) :   0.8685 
B( 58-C , 59-H ) :   0.9596 B( 58-C , 60-H ) :   0.9620 B( 61-C , 62-H ) :   0.9575 
B( 61-C , 63-H ) :   0.9618 



--------------------------------------------------------------------------------
                                    TIMINGS
--------------------------------------------------------------------------------


Total execution time                   ...      109.510 sec

Localization of occupied MO's          ...        4.294 sec (  3.9%)
Fock Matrix Formation                  ...       24.008 sec ( 21.9%)
Global overlap, Fock, MKN matrices     ...        0.858 sec (  0.8%)
Differential overlap integrals         ...        1.872 sec (  1.7%)
Organizing maps                        ...        0.077 sec (  0.1%)
RI 3-index integral generations        ...       26.777 sec ( 24.5%)
RI-PNO integral transformation         ...       24.919 sec ( 22.8%)
Initial Guess                          ...        8.324 sec (  7.6%)
DIIS Solver                            ...        0.242 sec (  0.2%)
State Vector Update                    ...        0.015 sec (  0.0%)
Sigma-vector construction              ...       16.210 sec ( 14.8%)
  <D|H|D>(0-ext)                       ...        0.769 sec (  4.7% of sigma)
  <D|H|D>(2-ext Fock)                  ...        0.008 sec (  0.0% of sigma)
  <D|H|D>(2-ext)                       ...        1.414 sec (  8.7% of sigma)
  <D|H|D>(4-ext)                       ...        1.021 sec (  6.3% of sigma)
  <D|H|D>(4-ext-corr)                  ...        5.849 sec ( 36.1% of sigma)
  CCSD doubles correction              ...        0.034 sec (  0.2% of sigma)
  <S|H|S>                              ...        0.790 sec (  4.9% of sigma)
  <S|H|D>(1-ext)                       ...        0.204 sec (  1.3% of sigma)
  <D|H|S>(1-ext)                       ...        0.006 sec (  0.0% of sigma)
  <S|H|D>(3-ext)                       ...        0.040 sec (  0.2% of sigma)
  Fock-dressing                        ...        2.426 sec ( 15.0% of sigma)
  Singles amplitudes                   ...        0.885 sec (  5.5% of sigma)
  (ik|jl)-dressing                     ...        0.524 sec (  3.2% of sigma)
  (ij|ab),(ia|jb)-dressing             ...        0.239 sec (  1.5% of sigma)
  Pair energies                        ...        0.067 sec (  0.4% of sigma)
One-particle density matrix            ...        0.592 sec (  0.5%)


Maximum memory used throughout the entire MDCI-calculation: 1531.9 MB

-------------------------   --------------------
FINAL SINGLE POINT ENERGY     -1085.728277567255
-------------------------   --------------------


                            ***************************************
                            *     ORCA property calculations      *
                            ***************************************

                                    ---------------------
                                    Active property flags
                                    ---------------------
   (+) Dipole Moment


------------------------------------------------------------------------------
                       ORCA ELECTRIC PROPERTIES CALCULATION
------------------------------------------------------------------------------

Dipole Moment Calculation                       ... ON
Quadrupole Moment Calculation                   ... OFF
Polarizability Calculation                      ... OFF
Atomic Dipole Moment Calculation                ... OFF
Atomic Quadrupole Moment Calculation            ... OFF
Atomic Polarizability Calculation               ... OFF
GBWName                                         ... 6.gbw
Electron density                                ... 6.scfp

The origin for moment calculation is the CENTER OF MASS  = (19.158681, 12.436833 13.304175)

-------------
DIPOLE MOMENT
-------------
                                X             Y             Z
Electronic contribution:     -1.69615       0.98930       0.01812
Nuclear contribution   :      1.65055      -0.95322      -0.02981
                        -----------------------------------------
Total Dipole Moment    :     -0.04561       0.03609      -0.01169
                        -----------------------------------------
Magnitude (a.u.)       :      0.05932
Magnitude (Debye)      :      0.15078



--------------------
Rotational spectrum 
--------------------
 
Rotational constants in cm-1:     0.020063     0.002505     0.002454 
Rotational constants in MHz :   601.472774    75.111864    73.572025 

 Dipole components along the rotational axes: 
x,y,z [a.u.] :    -0.009127     0.057549    -0.011121 
x,y,z [Debye]:    -0.023198     0.146279    -0.028267 

 

                           *** MDCI DENSITY ***

------------------------------------------------------------------------------
                       ORCA ELECTRIC PROPERTIES CALCULATION
------------------------------------------------------------------------------

Dipole Moment Calculation                       ... ON
Quadrupole Moment Calculation                   ... OFF
Polarizability Calculation                      ... OFF
Atomic Dipole Moment Calculation                ... OFF
Atomic Quadrupole Moment Calculation            ... OFF
Atomic Polarizability Calculation               ... OFF
GBWName                                         ... 6.gbw
Electron density                                ... 6.mdcip

The origin for moment calculation is the CENTER OF MASS  = (19.158681, 12.436833 13.304175)

-------------
DIPOLE MOMENT
-------------
                                X             Y             Z
Electronic contribution:     -1.68802       0.97956       0.01530
Nuclear contribution   :      1.65055      -0.95322      -0.02981
                        -----------------------------------------
Total Dipole Moment    :     -0.03747       0.02634      -0.01451
                        -----------------------------------------
Magnitude (a.u.)       :      0.04805
Magnitude (Debye)      :      0.12212



--------------------
Rotational spectrum 
--------------------
 
Rotational constants in cm-1:     0.020063     0.002505     0.002454 
Rotational constants in MHz :   601.472774    75.111864    73.572025 

 Dipole components along the rotational axes: 
x,y,z [a.u.] :    -0.013067     0.045492    -0.008251 
x,y,z [Debye]:    -0.033214     0.115633    -0.020973 

 

--------------------------------
SUGGESTED CITATIONS FOR THIS RUN
--------------------------------

Below you find a list of papers that are relevant to this ORCA run
We neither can nor want to force you to cite these paper, but we appreciate if you do
You receive ORCA, which is the product of a lot of hard work by many enthusiastic individuals, for free
The only thing we kindly ask in return is that you cite our papers,
We deeply appreciate it, if you show your appreciation for ORCA by not just citing the generic ORCA reference.

Please note that relegating all ORCA citations to the supporting information does *not* help us.
SI sections are not indexed - citations you put there will not count into any citation statistics
But we need these citations in order to attract the funding resources that allow us to do what we are doing

Therefore, if you are a happy ORCA user, please consider citing a few of the papers listed below in the main body of your paper

In addition to the list printed below, the program has created the file 6.bibtex that contains the list in bibtex format
You can import this file easily into all common literature databanks and citation aid programs


List of essential papers. We consider these as the minimum necessary citations

  1. Neese,F.
     Software update: the ORCA program system, version 5.0
     WIRES Comput. Molec. Sci., 2022 12(1)e1606
     doi.org/10.1002/wcms.1606

List of papers to cite with high priority. The work reported in these papers was absolutely
necessary for this run to complete.
Our perspective: the developers of density functionals and basis sets usually get cited in chemistry papers
Good! But without the algorithms to do something with them, the functionals or basis sets would not do anything.
Hence, in our opinion, the algorithm design and method developments papers are equally worthy of getting cited

  1. Neese,F.
     An improvement of the resolution of the identity approximation for the formation of the Coulomb matrix
     J. Comp. Chem., 2003 24(14)1740-1747
     doi.org/10.1002/jcc.10318
  2. Neese,F.; Wennmohs,F.; Hansen,A.; Becker,U.
     Efficient, approximate and parallel Hartree-Fock and hybrid DFT calculations. A 'chain-of-spheres' algorithm for the Hartree-Fock exchange
     Chem. Phys., 2009 356(1-3)98-109
     doi.org/10.1016/j.chemphys.2008.10.036
  3. Neese,F.; Hansen,A.; Liakos,D.G.
     Efficient and accurate approximations to the local coupled cluster singles doubles method using a truncated pair natural orbital basis
     J. Chem. Phys., 2009 131 064103
     doi.org/10.1063/1.3173827
  4. Neese,F.; Wennmohs,F.; Hansen,A.
     Efficient and accurate local approximations to coupled-electron pair approaches: An attempt to revive the pair natural orbital method
     J. Chem. Phys., 2009 130 114108
     doi.org/10.1063/1.3086717
  5. Riplinger,C.; Neese,F.
     An efficient and near linear scaling pair natural orbital based local coupled cluster method
     J. Chem. Phys., 2013 138(3)Art. No. 034106
     doi.org/10.1063/1.4773581
  6. Datta,D.; Kossmann,S.; Neese,F.
     Analytic energy derivatives for the calculation of the first-order molecular properties using the domain-based local pair-natural orbital coupled-cluster theory
     J. Chem. Phys., 2016 145 
     doi.org/10.1063/1.4962369
  7. Riplinger,C.; Pinski,P.; Becker,U.; Valeev,E.F.; Neese,F.
     Sparse maps-A systematic infrastructure for reduced-scaling electronic structure methods. II. Linear scaling domain based pair natural orbital coupled cluster theory
     J. Chem. Phys., 2016 144 
     doi.org/10.1063/1.4939030
  8. Bistoni,G.; Riplinger,C.; Minenkov,Y.; Cavallo,L.; Auer,A.A.; Neese,F.
     Treating Subvalence Correlation Effects in Domain Based Pair Natural Orbital Coupled Cluster Calculations: An Out-of-the-Box Approach
     J. Theo. Comp. Chem., 2017 13 3220-3227
     doi.org/10.1021/acs.jctc.7b00352
  9. Helmich-Paris,B.; de Souza,B.; Neese,F.; Izsk,R.
     An improved chain of spheres for exchange algorithm
     J. Chem. Phys., 2021 155 104109
     doi.org/doi: 10.1063/5.0058766.
 10. Neese,F.
     The SHARK Integral Generation and Digestion System
     J. Comp. Chem., 2022  1-16
     doi.org/10.1002/jcc.26942

List of suggested additional citations. These are papers that are important in the 'surrounding' of 
of this run, or papers that preceded the highly important papers. If you like your results we are grateful for a citation.

  1. Izsak,R.; Neese,F.
     An overlap fitted chain of spheres exchange method
     J. Chem. Phys., 2011 135 144105
     doi.org/10.1063/1.3646921
  2. Izsak,R.; Hansen,A.; Neese,F.
     The resolution of identity and chain of spheres approximations for the LPNO-CCSD singles Fock term
     Molec. Phys., 2012 110 2413-2417
     doi.org/10.1080/00268976.2012.687466
  3. Neese,F.
     The ORCA program system
     WIRES Comput. Molec. Sci., 2012 2(1)73-78
     doi.org/10.1002/wcms.81
  4. Izsak,R.; Neese,F.; Klopper,W.
     Robust fitting techniques in the chain of spheres approximation to the Fock exchange: The role of the complementary space
     J. Chem. Phys., 2013 139 
     doi.org/10.1063/1.4819264
  5. Neese,F.
     Software update: the ORCA program system, version 4.0
     WIRES Comput. Molec. Sci., 2018 8(1)1-6
     doi.org/10.1002/wcms.1327
  6. Neese,F.; Wennmohs,F.; Becker,U.; Riplinger,C.
     The ORCA quantum chemistry program package
     J. Chem. Phys., 2020 152 Art. No. L224108
     doi.org/10.1063/5.0004608

List of optional additional citations

  1. Neese,F.
     Approximate second-order SCF convergence for spin unrestricted wavefunctions
     Chem. Phys. Lett., 2000 325(1-3)93-98
     doi.org/10.1016/s0009-2614(00)00662-x

Timings for individual modules:

Sum of individual times          ...      145.938 sec (=   2.432 min)
GTO integral calculation         ...        6.355 sec (=   0.106 min)   4.4 %
SCF iterations                   ...       25.705 sec (=   0.428 min)  17.6 %
Property integrals               ...        3.512 sec (=   0.059 min)   2.4 %
MDCI module                      ...      110.366 sec (=   1.839 min)  75.6 %
                             ****ORCA TERMINATED NORMALLY****
TOTAL RUN TIME: 0 days 0 hours 2 minutes 26 seconds 682 msec