                                 *****************
                                 * O   R   C   A *
                                 *****************

                                            #,                                       
                                            ###                                      
                                            ####                                     
                                            #####                                    
                                            ######                                   
                                           ########,                                 
                                     ,,################,,,,,                         
                               ,,#################################,,                 
                          ,,##########################################,,             
                       ,#########################################, ''#####,          
                    ,#############################################,,   '####,        
                  ,##################################################,,,,####,       
                ,###########''''           ''''###############################       
              ,#####''   ,,,,##########,,,,          '''####'''          '####       
            ,##' ,,,,###########################,,,                        '##       
           ' ,,###''''                  '''############,,,                           
         ,,##''                                '''############,,,,        ,,,,,,###''
      ,#''                                            '''#######################'''  
     '                                                          ''''####''''         
             ,#######,   #######,   ,#######,      ##                                
            ,#'     '#,  ##    ##  ,#'     '#,    #''#        ,####,   ,####,        
            ##       ##  ##   ,#'  ##            #'  '#       #'       #'  '#        
            ##       ##  #######   ##           ,######,      #####,   #    #        
            '#,     ,#'  ##    ##  '#,     ,#' ,#      #,     #,   #   #,  ,#        
             '#######'   ##     ##  '#######'  #'      '#     '####' # '####'.alpha  



                  #######################################################
                  #                        -***-                        #
                  #          Department of theory and spectroscopy      #
                  #    Directorship and core code : Frank Neese         #
                  #        Max Planck Institute fuer Kohlenforschung    #
                  #                Kaiser Wilhelm Platz 1               #
                  #                 D-45470 Muelheim/Ruhr               #
                  #                      Germany                        #
                  #                                                     #
                  #                  All rights reserved                #
                  #                        -***-                        #
                  #######################################################


                         Program Version 6.0  -  CURRENT   -
                                (GIT: $992d98065a$)
                ($2024-01-15 14:55:59 +0100 $)

                  !                     WARNING:                         !
                  !         This is a DEVELOPMENT version                !

                         (BUILD: $Di 16. Jan 00:10:13 CET 2024$)


 With contributions from (in alphabetic order):
   Daniel Aravena         : Magnetic Suceptibility
   Michael Atanasov       : Ab Initio Ligand Field Theory (pilot matlab implementation)
   Alexander A. Auer      : GIAO ZORA, VPT2 properties, NMR spectrum
   Ute Becker             : Parallelization
   Giovanni Bistoni       : ED, misc. LED, open-shell LED, HFLD
   Martin Brehm           : Molecular dynamics
   Dmytro Bykov           : SCF Hessian
   Vijay G. Chilkuri      : MRCI spin determinant printing, contributions to CSF-ICE
   Dipayan Datta          : RHF DLPNO-CCSD density
   Achintya Kumar Dutta   : EOM-CC, STEOM-CC
   Dmitry Ganyushin       : Spin-Orbit,Spin-Spin,Magnetic field MRCI
   Miquel Garcia          : C-PCM and meta-GGA Hessian, CCSD/C-PCM, Gaussian charge scheme
   Yang Guo               : DLPNO-NEVPT2, F12-NEVPT2, CIM, IAO-localization
   Andreas Hansen         : Spin unrestricted coupled pair/coupled cluster methods
   Benjamin Helmich-Paris : MC-RPA, TRAH-(SCF,CASSCF), AVAS, COSX integrals, SCF dyn. polar.
   Lee Huntington         : MR-EOM, pCC
   Robert Izsak           : Overlap fitted RIJCOSX, COSX-SCS-MP3, EOM
   Marcus Kettner         : VPT2
   Christian Kollmar      : KDIIS, OOCD, Brueckner-CCSD(T), CCSD density, CASPT2, CASPT2-K, improved NEVPT2
   Simone Kossmann        : Meta GGA functionals, TD-DFT gradient, OOMP2, MP2 Hessian
   Martin Krupicka        : Initial AUTO-CI
   Lucas Lang             : DCDCAS
   Marvin Lechner         : AUTO-CI (C++ implementation), FIC-MRCC
   Dagmar Lenk            : GEPOL surface, SMD
   Dimitrios Liakos       : Extrapolation schemes; Compound Job, initial MDCI parallelization
   Dimitrios Manganas     : Further ROCIS development; embedding schemes
   Dimitrios Pantazis     : SARC Basis sets
   Anastasios Papadopoulos: AUTO-CI, single reference methods and gradients
   Taras Petrenko         : DFT Hessian,TD-DFT gradient, ASA, ECA, R-Raman, ABS, FL, XAS/XES, NRVS
   Peter Pinski           : DLPNO-MP2, DLPNO-MP2 Gradient
   Christoph Reimann      : Effective Core Potentials
   Marius Retegan         : Local ZFS, SOC
   Christoph Riplinger    : Optimizer, TS searches, QM/MM, DLPNO-CCSD(T), (RO)-DLPNO pert. Triples
   Tobias Risthaus        : Range-separated hybrids, TD-DFT gradient, RPA, STAB
   Michael Roemelt        : Original ROCIS implementation
   Masaaki Saitow         : Open-shell DLPNO-CCSD energy and density
   Barbara Sandhoefer     : DKH picture change effects
   Avijit Sen             : IP-ROCIS
   Kantharuban Sivalingam : CASSCF convergence, NEVPT2, FIC-MRCI
   Bernardo de Souza      : ESD, SOC TD-DFT
   Georgi Stoychev        : AutoAux, RI-MP2 NMR, DLPNO-MP2 response
   Willem Van den Heuvel  : Paramagnetic NMR
   Boris Wezisla          : Elementary symmetry handling
   Frank Wennmohs         : Technical directorship


 We gratefully acknowledge several colleagues who have allowed us to
 interface, adapt or use parts of their codes:
   Stefan Grimme, W. Hujo, H. Kruse, P. Pracht,  : VdW corrections, initial TS optimization,
                  C. Bannwarth, S. Ehlert          DFT functionals, gCP, sTDA/sTD-DF
   Ed Valeev, F. Pavosevic, A. Kumar             : LibInt (2-el integral package), F12 methods
   Garnet Chan, S. Sharma, J. Yang, R. Olivares  : DMRG
   Ulf Ekstrom                                   : XCFun DFT Library
   Mihaly Kallay                                 : mrcc  (arbitrary order and MRCC methods)
   Jiri Pittner, Ondrej Demel                    : Mk-CCSD
   Frank Weinhold                                : gennbo (NPA and NBO analysis)
   Christopher J. Cramer and Donald G. Truhlar   : smd solvation model
   Lars Goerigk                                  : TD-DFT with DH, B97 family of functionals
   V. Asgeirsson, H. Jonsson                     : NEB implementation
   FAccTs GmbH                                   : IRC, NEB, NEB-TS, DLPNO-Multilevel, CI-OPT
                                                   MM, QMMM, 2- and 3-layer-ONIOM, Crystal-QMMM,
                                                   LR-CPCM, SF, NACMEs, symmetry and pop. for TD-DFT,
                                                   nearIR, NL-DFT gradient (VV10), updates on ESD,
                                                   ML-optimized integration grids
   S Lehtola, MJT Oliveira, MAL Marques          : LibXC Library
   Liviu Ungur et al                             : ANISO software


 Your calculation uses the libint2 library for the computation of 2-el integrals
 For citations please refer to: http://libint.valeyev.net

 Your ORCA version has been built with support for libXC version: 5.2.2
 For citations please refer to: https://tddft.org/programs/libxc/

 This ORCA versions uses:
   CBLAS   interface :  Fast vector & matrix operations
   LAPACKE interface :  Fast linear algebra routines
   SCALAPACK package :  Parallel linear algebra routines
   Shared memory     :  Shared parallel matrices


================================================================================

----- Orbital basis set information -----
Your calculation utilizes the basis: def2-TZVP(-f)
   F. Weigend and R. Ahlrichs, Phys. Chem. Chem. Phys. 7, 3297 (2005).

----- AuxJ basis set information -----
Your calculation utilizes the auxiliary basis: def2/J
   F. Weigend, Phys. Chem. Chem. Phys. 8, 1057 (2006).

----- AuxC basis set information -----
Your calculation utilizes the auxiliary basis: def2-TZVP/C
  H-La, Hf-Rn : A. Hellweg, C. Hattig, S. Hofener and W. Klopper, Theor. Chem. Acc. 117, 587 (2007).
        Ce-Lu : J. Chmela and M. E. Harding, Mol. Phys. (2018).

================================================================================
                                        WARNINGS
                       Please study these warnings very carefully!
================================================================================


WARNING: Post HF methods need fully converged wavefunctions
  ===> : Setting SCFConvForced true
         You can overwrite this default with %scf ConvForced false 


WARNING: MDCI localization with Augmented Hessian Foster-Boys
  ===> : Switching off randomization!
================================================================================
                                       INPUT FILE
================================================================================
NAME = 10.inp
|  1> ! DLPNO-CCSD RIJCOSX def2-TZVP(-f) def2/J def2-tzvp/C verytightscf LoosePNO
|  2> 
|  3> %pal nprocs 16 end
|  4> %maxcore 4000
|  5> %scf maxiter 999 end
|  6> 
|  7> *xyz 0 1
|  8> C(10)       8.845181    5.786946   22.449799
|  9> C(10)       7.680306    5.937057   21.814500
| 10> H(10)       6.894014    5.850045   22.340490
| 11> C(10)       7.486244    6.226963   20.365637
| 12> H(10)       7.040037    5.563590   19.852498
| 13> C(10)       7.882887    7.342178   19.708233
| 14> C(10)       8.617380    8.443438   20.393561
| 15> H(10)       8.212011    9.302318   20.416059
| 16> C(10)       9.808495    8.298727   20.977511
| 17> H(10)      10.206755    9.079626   21.343684
| 18> C(10)      10.564435    7.037744   21.107124
| 19> H(10)      11.430364    7.009127   20.717440
| 20> C(10)      10.137630    5.935438   21.723497
| 21> H(10)      10.708664    5.176666   21.697316
| 22> C(10)       8.949467    5.415060   23.941070
| 23> C(10)       9.598136    6.591160   24.678227
| 24> H(10)      10.492631    6.767888   24.292508
| 25> H(10)       9.045132    7.402760   24.553366
| 26> C(10)       9.738301    6.297203   26.171466
| 27> H(10)      10.163332    7.079521   26.626814
| 28> C(10)       8.386610    6.027540   26.790314
| 29> H(10)       7.812684    6.828986   26.698693
| 30> H(10)       8.494847    5.834265   27.755201
| 31> C(10)       7.722253    4.838699   26.099952
| 32> H(10)       6.820963    4.675841   26.501419
| 33> C(10)       7.572941    5.154816   24.590515
| 34> H(10)       7.133040    4.393057   24.136291
| 35> H(10)       6.998526    5.953004   24.476284
| 36> C(10)       9.820505    4.142084   24.148918
| 37> H(10)       9.390889    3.369635   23.702991
| 38> H(10)      10.710879    4.278582   23.738199
| 39> C(10)       9.984949    3.845159   25.649835
| 40> H(10)      10.560750    3.036442   25.769971
| 41> C(10)      10.632236    5.045760   26.353273
| 42> H(10)      11.528387    5.215863   25.968455
| 43> H(10)      10.741492    4.849724   27.317485
| 44> C(10)       8.599722    3.588366   26.270708
| 45> H(10)       8.171164    2.814931   25.825483
| 46> H(10)       8.697812    3.376732   27.232839
| 47> C(10)       7.550536    7.577204   18.235382
| 48> C(10)       8.862152    7.855408   17.495442
| 49> H(10)       9.467845    7.079069   17.598058
| 50> H(10)       9.305063    8.644048   17.897921
| 51> C(10)       8.616511    8.116897   15.997393
| 52> H(10)       9.485982    8.300237   15.538671
| 53> C(10)       7.938857    6.892562   15.358860
| 54> H(10)       7.777278    7.062426   14.397038
| 55> H(10)       8.529904    6.102412   15.439063
| 56> C(10)       6.606774    6.619138   16.069076
| 57> H(10)       6.173322    5.814570   15.663138
| 58> C(10)       6.873169    6.357366   17.559278
| 59> H(10)       7.457394    5.563719   17.653627
| 60> H(10)       6.016834    6.162620   18.016342
| 61> C(10)       6.612548    8.784953   18.042214
| 62> H(10)       7.018462    9.587722   18.455604
| 63> H(10)       5.750152    8.609083   18.495453
| 64> C(10)       6.361304    9.049500   16.542253
| 65> H(10)       5.764202    9.845637   16.444108
| 66> C(10)       7.680757    9.324381   15.839827
| 67> H(10)       8.105450   10.128872   16.230383
| 68> H(10)       7.517523    9.496877   14.878736
| 69> C(10)       5.684173    7.829597   15.906335
| 70> H(10)       4.816262    7.655275   16.349535
| 71> H(10)       5.515105    7.999183   14.945723
| 72> *
| 73> 
| 74>                          ****END OF INPUT****
================================================================================

                       ****************************
                       * Single Point Calculation *
                       ****************************

---------------------------------
CARTESIAN COORDINATES (ANGSTROEM)
---------------------------------
  C      8.845181    5.786946   22.449799
  C      7.680306    5.937057   21.814500
  H      6.894014    5.850045   22.340490
  C      7.486244    6.226963   20.365637
  H      7.040037    5.563590   19.852498
  C      7.882887    7.342178   19.708233
  C      8.617380    8.443438   20.393561
  H      8.212011    9.302318   20.416059
  C      9.808495    8.298727   20.977511
  H     10.206755    9.079626   21.343684
  C     10.564435    7.037744   21.107124
  H     11.430364    7.009127   20.717440
  C     10.137630    5.935438   21.723497
  H     10.708664    5.176666   21.697316
  C      8.949467    5.415060   23.941070
  C      9.598136    6.591160   24.678227
  H     10.492631    6.767888   24.292508
  H      9.045132    7.402760   24.553366
  C      9.738301    6.297203   26.171466
  H     10.163332    7.079521   26.626814
  C      8.386610    6.027540   26.790314
  H      7.812684    6.828986   26.698693
  H      8.494847    5.834265   27.755201
  C      7.722253    4.838699   26.099952
  H      6.820963    4.675841   26.501419
  C      7.572941    5.154816   24.590515
  H      7.133040    4.393057   24.136291
  H      6.998526    5.953004   24.476284
  C      9.820505    4.142084   24.148918
  H      9.390889    3.369635   23.702991
  H     10.710879    4.278582   23.738199
  C      9.984949    3.845159   25.649835
  H     10.560750    3.036442   25.769971
  C     10.632236    5.045760   26.353273
  H     11.528387    5.215863   25.968455
  H     10.741492    4.849724   27.317485
  C      8.599722    3.588366   26.270708
  H      8.171164    2.814931   25.825483
  H      8.697812    3.376732   27.232839
  C      7.550536    7.577204   18.235382
  C      8.862152    7.855408   17.495442
  H      9.467845    7.079069   17.598058
  H      9.305063    8.644048   17.897921
  C      8.616511    8.116897   15.997393
  H      9.485982    8.300237   15.538671
  C      7.938857    6.892562   15.358860
  H      7.777278    7.062426   14.397038
  H      8.529904    6.102412   15.439063
  C      6.606774    6.619138   16.069076
  H      6.173322    5.814570   15.663138
  C      6.873169    6.357366   17.559278
  H      7.457394    5.563719   17.653627
  H      6.016834    6.162620   18.016342
  C      6.612548    8.784953   18.042214
  H      7.018462    9.587722   18.455604
  H      5.750152    8.609083   18.495453
  C      6.361304    9.049500   16.542253
  H      5.764202    9.845637   16.444108
  C      7.680757    9.324381   15.839827
  H      8.105450   10.128872   16.230383
  H      7.517523    9.496877   14.878736
  C      5.684173    7.829597   15.906335
  H      4.816262    7.655275   16.349535
  H      5.515105    7.999183   14.945723

----------------------------
CARTESIAN COORDINATES (A.U.)
----------------------------
  NO LB      ZA    FRAG     MASS         X           Y           Z
   0 C     6.0000   10    12.011   16.714970   10.935743   42.423972
   1 C     6.0000   10    12.011   14.513675   11.219412   41.223431
   2 H     1.0000   10     1.008   13.027798   11.054983   42.217408
   3 C     6.0000   10    12.011   14.146951   11.767255   38.485476
   4 H     1.0000   10     1.008   13.303742   10.513661   37.515784
   5 C     6.0000   10    12.011   14.896498   13.874706   37.243163
   6 C     6.0000   10    12.011   16.284488   15.955785   38.538245
   7 H     1.0000   10     1.008   15.518452   17.578833   38.580760
   8 C     6.0000   10    12.011   18.535369   15.682321   39.641751
   9 H     1.0000   10     1.008   19.287972   17.158007   40.333717
  10 C     6.0000   10    12.011   19.963889   13.299409   39.886684
  11 H     1.0000   10     1.008   21.600258   13.245330   39.150288
  12 C     6.0000   10    12.011   19.157344   11.216352   41.051460
  13 H     1.0000   10     1.008   20.236442    9.782481   41.001985
  14 C     6.0000   10    12.011   16.912042   10.232980   45.242066
  15 C     6.0000   10    12.011   18.137848   12.455487   46.635091
  16 H     1.0000   10     1.008   19.828199   12.789455   45.906187
  17 H     1.0000   10     1.008   17.092822   13.989189   46.399137
  18 C     6.0000   10    12.011   18.402722   11.899989   49.456903
  19 H     1.0000   10     1.008   19.205914   13.378356   50.317386
  20 C     6.0000   10    12.011   15.848396   11.390400   50.626357
  21 H     1.0000   10     1.008   14.763833   12.904913   50.453218
  22 H     1.0000   10     1.008   16.052934   11.025163   52.449729
  23 C     6.0000   10    12.011   14.592943    9.143816   49.321761
  24 H     1.0000   10     1.008   12.889752    8.836059   50.080424
  25 C     6.0000   10    12.011   14.310785    9.741191   46.469339
  26 H     1.0000   10     1.008   13.479492    8.301675   45.610980
  27 H     1.0000   10     1.008   13.225297   11.249547   46.253474
  28 C     6.0000   10    12.011   18.558065    7.827404   45.634841
  29 H     1.0000   10     1.008   17.746208    6.367687   44.792162
  30 H     1.0000   10     1.008   20.240628    8.085348   44.858695
  31 C     6.0000   10    12.011   18.868819    7.266297   48.471164
  32 H     1.0000   10     1.008   19.956925    5.738044   48.698188
  33 C     6.0000   10    12.011   20.092014    9.535105   49.800469
  34 H     1.0000   10     1.008   21.785494    9.856553   49.073268
  35 H     1.0000   10     1.008   20.298478    9.164650   51.622565
  36 C     6.0000   10    12.011   16.251119    6.781029   49.644443
  37 H     1.0000   10     1.008   15.441262    5.319449   48.803090
  38 H     1.0000   10     1.008   16.436483    6.381099   51.462608
  39 C     6.0000   10    12.011   14.268445   14.318840   34.459878
  40 C     6.0000   10    12.011   16.747040   14.844570   33.061594
  41 H     1.0000   10     1.008   17.891634   13.377502   33.255510
  42 H     1.0000   10     1.008   17.584021   16.334883   33.822169
  43 C     6.0000   10    12.011   16.282846   15.338712   30.230692
  44 H     1.0000   10     1.008   17.925908   15.685175   29.363833
  45 C     6.0000   10    12.011   15.002266   13.025055   29.024039
  46 H     1.0000   10     1.008   14.696925   13.346051   27.206459
  47 H     1.0000   10     1.008   16.119183   11.531887   29.175601
  48 C     6.0000   10    12.011   12.484993   12.508358   30.366153
  49 H     1.0000   10     1.008   11.665888   10.987945   29.599041
  50 C     6.0000   10    12.011   12.988407   12.013681   33.182227
  51 H     1.0000   10     1.008   14.092432   10.513905   33.360520
  52 H     1.0000   10     1.008   11.370168   11.645664   34.045952
  53 C     6.0000   10    12.011   12.495905   16.601155   34.094843
  54 H     1.0000   10     1.008   13.262971   18.118169   34.876037
  55 H     1.0000   10     1.008   10.866213   16.268809   34.951341
  56 C     6.0000   10    12.011   12.021122   17.101077   31.260328
  57 H     1.0000   10     1.008   10.892763   18.605558   31.074861
  58 C     6.0000   10    12.011   14.514527   17.620526   29.932935
  59 H     1.0000   10     1.008   15.317081   19.140794   30.670979
  60 H     1.0000   10     1.008   14.206060   17.946497   28.116736
  61 C     6.0000   10    12.011   10.741530   14.795794   30.058617
  62 H     1.0000   10     1.008    9.101416   14.466373   30.896144
  63 H     1.0000   10     1.008   10.422038   15.116265   28.243323

----------------------------------------------
CARTESIAN COORDINATES OF FRAGMENTS (ANGSTROEM)
----------------------------------------------

 FRAGMENT 1 

 FRAGMENT 2 

 FRAGMENT 3 

 FRAGMENT 4 

 FRAGMENT 5 

 FRAGMENT 6 

 FRAGMENT 7 

 FRAGMENT 8 

 FRAGMENT 9 

 FRAGMENT 10 
  C     8.845181    5.786946   22.449799
  C     7.680306    5.937057   21.814500
  H     6.894014    5.850045   22.340490
  C     7.486244    6.226963   20.365637
  H     7.040037    5.563590   19.852498
  C     7.882887    7.342178   19.708233
  C     8.617380    8.443438   20.393561
  H     8.212011    9.302318   20.416059
  C     9.808495    8.298727   20.977511
  H    10.206755    9.079626   21.343684
  C    10.564435    7.037744   21.107124
  H    11.430364    7.009127   20.717440
  C    10.137630    5.935438   21.723497
  H    10.708664    5.176666   21.697316
  C     8.949467    5.415060   23.941070
  C     9.598136    6.591160   24.678227
  H    10.492631    6.767888   24.292508
  H     9.045132    7.402760   24.553366
  C     9.738301    6.297203   26.171466
  H    10.163332    7.079521   26.626814
  C     8.386610    6.027540   26.790314
  H     7.812684    6.828986   26.698693
  H     8.494847    5.834265   27.755201
  C     7.722253    4.838699   26.099952
  H     6.820963    4.675841   26.501419
  C     7.572941    5.154816   24.590515
  H     7.133040    4.393057   24.136291
  H     6.998526    5.953004   24.476284
  C     9.820505    4.142084   24.148918
  H     9.390889    3.369635   23.702991
  H    10.710879    4.278582   23.738199
  C     9.984949    3.845159   25.649835
  H    10.560750    3.036442   25.769971
  C    10.632236    5.045760   26.353273
  H    11.528387    5.215863   25.968455
  H    10.741492    4.849724   27.317485
  C     8.599722    3.588366   26.270708
  H     8.171164    2.814931   25.825483
  H     8.697812    3.376732   27.232839
  C     7.550536    7.577204   18.235382
  C     8.862152    7.855408   17.495442
  H     9.467845    7.079069   17.598058
  H     9.305063    8.644048   17.897921
  C     8.616511    8.116897   15.997393
  H     9.485982    8.300237   15.538671
  C     7.938857    6.892562   15.358860
  H     7.777278    7.062426   14.397038
  H     8.529904    6.102412   15.439063
  C     6.606774    6.619138   16.069076
  H     6.173322    5.814570   15.663138
  C     6.873169    6.357366   17.559278
  H     7.457394    5.563719   17.653627
  H     6.016834    6.162620   18.016342
  C     6.612548    8.784953   18.042214
  H     7.018462    9.587722   18.455604
  H     5.750152    8.609083   18.495453
  C     6.361304    9.049500   16.542253
  H     5.764202    9.845637   16.444108
  C     7.680757    9.324381   15.839827
  H     8.105450   10.128872   16.230383
  H     7.517523    9.496877   14.878736
  C     5.684173    7.829597   15.906335
  H     4.816262    7.655275   16.349535
  H     5.515105    7.999183   14.945723

--------------------------------
INTERNAL COORDINATES (ANGSTROEM)
--------------------------------
 C      0   0   0     0.000000000000     0.00000000     0.00000000
 C      1   0   0     1.335317152345     0.00000000     0.00000000
 H      2   1   0     0.949995619731   116.63570635     0.00000000
 C      2   1   3     1.490271633444   126.72772871   180.00059064
 H      4   2   1     0.949987398495   116.77366365   116.46106238
 C      4   2   1     1.353960924432   126.45081627   296.46026267
 C      6   4   2     1.490613304057   121.98111169     1.29315450
 H      7   6   4     0.950002652925   117.94115993   241.28788523
 C      7   6   4     1.334426400835   124.11822094    61.28531303
 H      9   7   6     0.949998390383   116.98328321   176.75603021
 C      9   7   6     1.475914272462   126.03361623   356.75678681
 H     11   9   7     0.950002939778   117.16602187   120.83673400
 C     11   9   7     1.333100409118   125.66767298   300.83860795
 H     13  11   9     0.950000116790   117.08062277   177.06701304
 C      1   2   3     1.540475239085   123.14533109     3.29211965
 C     15   1   2     1.532117203157   108.00598412   244.48938642
 H     16  15   1     0.990016786711   109.39664757   300.98056473
 H     16  15   1     0.989999117847   109.39774974    59.11381548
 C     16  15   1     1.528338855161   111.17825588   180.04754013
 H     19  16  15     1.000007302568   109.47519714   180.00792798
 C     19  16  15     1.510880385786   110.63835826   300.74094517
 H     21  19  16     0.990000581835   109.64845846   298.29850108
 H     21  19  16     0.989988584057   109.64804438   179.68981573
 C     21  19  16     1.526863726000   110.06221677    58.99394662
 H     24  21  19     1.000011072115   109.72107831   181.08814432
 C     15   1   2     1.544127448185   112.79863387     3.42791284
 H     26  15   1     0.990004599009   109.44023323    61.30118728
 H     26  15   1     0.990002725718   109.44034801   303.08799399
 C     15   1   2     1.556398369674   111.38384718   124.74478736
 H     29  15   1     0.989999118376   109.58173687   297.07145656
 H     29  15   1     0.989993768082   109.58230665    55.55432756
 C     29  15   1     1.538817118975   110.35772757   176.31265735
 H     32  29  15     1.000001318092   109.55772234   181.10735866
 C     32  29  15     1.534681804614   109.94948458   301.56268746
 H     34  32  29     0.990003302284   109.75748147   299.14794222
 H     34  32  29     0.989985741198   109.75885678   180.32670547
 C     24  21  19     1.537023769623   109.55762280    60.57273966
 H     37  24  21     0.989994423830   109.78164217   179.90471900
 H     37  24  21     0.990003363235   109.78119381    61.03774386
 C      6   4   2     1.528065599403   122.07076562   184.10931703
 C     40   6   4     1.531419341876   107.90107035   234.17922554
 H     41  40   6     0.989998129607   109.35737821    59.51450598
 H     41  40   6     0.990006337839   109.35702361   301.45639041
 C     41  40   6     1.540411245221   111.35505930   180.48570234
 H     44  41  40     1.000009624316   109.79015597   179.70201595
 C     44  41  40     1.538159786248   109.80663173   300.50086883
 H     46  44  41     0.989981369229   109.79465305   179.73980412
 H     46  44  41     0.990003080762   109.79385578   298.63351313
 C     46  44  41     1.534148809380   109.40347637    59.18629552
 H     49  46  44     0.999997981384   109.38000578   180.87748971
 C     49  46  44     1.536291924347   109.19932712   300.54526692
 H     51  49  46     0.989998053046   109.35190996   299.17662577
 H     51  49  46     0.990021786042   109.35083365   181.13118175
 C     40   6   4     1.541360766131   111.94203650   114.78965782
 H     54  40   6     0.989997744875   109.48314410    55.79578424
 H     54  40   6     0.989991267051   109.48374413   297.49962174
 C     54  40   6     1.543694161505   110.79940444   176.64711006
 H     57  54  40     0.999998681098   109.20702617   180.97458724
 C     57  54  40     1.519841461747   109.80231060   300.69419665
 H     59  57  54     0.990001970940   109.69822069   298.89830149
 H     59  57  54     0.989998039924   109.69694857   180.19362726
 C     49  46  44     1.530649610121   109.46302253    61.04917568
 H     62  49  46     0.989991870474   109.97286218   179.07951587
 H     62  49  46     0.990009502259   109.97213134    59.83769894

---------------------------
INTERNAL COORDINATES (A.U.)
---------------------------
 C      0   0   0     0.000000000000     0.00000000     0.00000000
 C      1   0   0     2.523383719860     0.00000000     0.00000000
 H      2   1   0     1.795231549716   116.63570635     0.00000000
 C      2   1   3     2.816205252361   126.72772871   180.00059064
 H      4   2   1     1.795216013832   116.77366365   116.46106238
 C      4   2   1     2.558615343208   126.45081627   296.46026267
 C      6   4   2     2.816850916248   121.98111169     1.29315450
 H      7   6   4     1.795244840527   117.94115993   241.28788523
 C      7   6   4     2.521700443453   124.11822094    61.28531303
 H      9   7   6     1.795236785490   116.98328321   176.75603021
 C      9   7   6     2.789073772099   126.03361623   356.75678681
 H     11   9   7     1.795245382600   117.16602187   120.83673400
 C     11   9   7     2.519194682251   125.66767298   300.83860795
 H     13  11   9     1.795240047926   117.08062277   177.06701304
 C      1   2   3     2.911076317957   123.14533109     3.29211965
 C     15   1   2     2.895281919036   108.00598412   244.48938642
 H     16  15   1     1.870860594869   109.39664757   300.98056473
 H     16  15   1     1.870827205554   109.39774974    59.11381548
 C     16  15   1     2.888141876085   111.17825588   180.04754013
 H     19  16  15     1.889739933775   109.47519714   180.00792798
 C     19  16  15     2.855150150250   110.63835826   300.74094517
 H     21  19  16     1.870829972090   109.64845846   298.29850108
 H     21  19  16     1.870807299576   109.64804438   179.68981573
 C     21  19  16     2.885354285958   110.06221677    58.99394662
 H     24  21  19     1.889747057187   109.72107831   181.08814432
 C     15   1   2     2.917977992940   112.79863387     3.42791284
 H     26  15   1     1.870837563449   109.44023323    61.30118728
 H     26  15   1     1.870834023443   109.44034801   303.08799399
 C     15   1   2     2.941166673965   111.38384718   124.74478736
 H     29  15   1     1.870827206555   109.58173687   297.07145656
 H     29  15   1     1.870817095964   109.58230665    55.55432756
 C     29  15   1     2.907942925052   110.35772757   176.31265735
 H     32  29  15     1.889728624754   109.55772234   181.10735866
 C     32  29  15     2.900128313433   109.94948458   301.56268746
 H     34  32  29     1.870835112995   109.75748147   299.14794222
 H     34  32  29     1.870801927352   109.75885678   180.32670547
 C     24  21  19     2.904553985915   109.55762280    60.57273966
 H     37  24  21     1.870818335147   109.78164217   179.90471900
 H     37  24  21     1.870835228175   109.78119381    61.03774386
 C      6   4   2     2.887625497537   122.07076562   184.10931703
 C     40   6   4     2.893963152336   107.90107035   234.17922554
 H     41  40   6     1.870825338052   109.35737821    59.51450598
 H     41  40   6     1.870840849363   109.35702361   301.45639041
 C     41  40   6     2.910955387080   111.35505930   180.48570234
 H     44  41  40     1.889744321243   109.79015597   179.70201595
 C     44  41  40     2.906700746219   109.80663173   300.50086883
 H     46  44  41     1.870793665528   109.79465305   179.73980412
 H     46  44  41     1.870834694378   109.79385578   298.63351313
 C     46  44  41     2.899121098409   109.40347637    59.18629552
 H     49  46  44     1.889722319290   109.38000578   180.87748971
 C     49  46  44     2.903170998770   109.19932712   300.54526692
 H     51  49  46     1.870825193372   109.35190996   299.17662577
 H     51  49  46     1.870870042234   109.35083365   181.13118175
 C     40   6   4     2.912749721559   111.94203650   114.78965782
 H     54  40   6     1.870824611013   109.48314410    55.79578424
 H     54  40   6     1.870812369700   109.48374413   297.49962174
 C     54  40   6     2.917159199778   110.79940444   176.64711006
 H     57  54  40     1.889723641558   109.20702617   180.97458724
 C     57  54  40     2.872084129681   109.80231060   300.69419665
 H     59  57  54     1.870832597120   109.69822069   298.89830149
 H     59  57  54     1.870825168575   109.69694857   180.19362726
 C     49  46  44     2.892508570122   109.46302253    61.04917568
 H     62  49  46     1.870813510005   109.97286218   179.07951587
 H     62  49  46     1.870846829250   109.97213134    59.83769894

---------------------
BASIS SET INFORMATION
---------------------
There are 2 groups of distinct atoms

 Group   1 Type C   : 11s6p2d contracted to 5s3p2d pattern {62111/411/11}
 Group   2 Type H   : 5s1p contracted to 3s1p pattern {311/1}

Atom   0C    basis set group =>   1
Atom   1C    basis set group =>   1
Atom   2H    basis set group =>   2
Atom   3C    basis set group =>   1
Atom   4H    basis set group =>   2
Atom   5C    basis set group =>   1
Atom   6C    basis set group =>   1
Atom   7H    basis set group =>   2
Atom   8C    basis set group =>   1
Atom   9H    basis set group =>   2
Atom  10C    basis set group =>   1
Atom  11H    basis set group =>   2
Atom  12C    basis set group =>   1
Atom  13H    basis set group =>   2
Atom  14C    basis set group =>   1
Atom  15C    basis set group =>   1
Atom  16H    basis set group =>   2
Atom  17H    basis set group =>   2
Atom  18C    basis set group =>   1
Atom  19H    basis set group =>   2
Atom  20C    basis set group =>   1
Atom  21H    basis set group =>   2
Atom  22H    basis set group =>   2
Atom  23C    basis set group =>   1
Atom  24H    basis set group =>   2
Atom  25C    basis set group =>   1
Atom  26H    basis set group =>   2
Atom  27H    basis set group =>   2
Atom  28C    basis set group =>   1
Atom  29H    basis set group =>   2
Atom  30H    basis set group =>   2
Atom  31C    basis set group =>   1
Atom  32H    basis set group =>   2
Atom  33C    basis set group =>   1
Atom  34H    basis set group =>   2
Atom  35H    basis set group =>   2
Atom  36C    basis set group =>   1
Atom  37H    basis set group =>   2
Atom  38H    basis set group =>   2
Atom  39C    basis set group =>   1
Atom  40C    basis set group =>   1
Atom  41H    basis set group =>   2
Atom  42H    basis set group =>   2
Atom  43C    basis set group =>   1
Atom  44H    basis set group =>   2
Atom  45C    basis set group =>   1
Atom  46H    basis set group =>   2
Atom  47H    basis set group =>   2
Atom  48C    basis set group =>   1
Atom  49H    basis set group =>   2
Atom  50C    basis set group =>   1
Atom  51H    basis set group =>   2
Atom  52H    basis set group =>   2
Atom  53C    basis set group =>   1
Atom  54H    basis set group =>   2
Atom  55H    basis set group =>   2
Atom  56C    basis set group =>   1
Atom  57H    basis set group =>   2
Atom  58C    basis set group =>   1
Atom  59H    basis set group =>   2
Atom  60H    basis set group =>   2
Atom  61C    basis set group =>   1
Atom  62H    basis set group =>   2
Atom  63H    basis set group =>   2
---------------------------------
AUXILIARY/J BASIS SET INFORMATION
---------------------------------
There are 2 groups of distinct atoms

 Group   1 Type C   : 12s5p4d2f1g contracted to 6s4p3d1f1g pattern {711111/2111/211/2/1}
 Group   2 Type H   : 5s2p1d contracted to 3s1p1d pattern {311/2/1}

Atom   0C    basis set group =>   1
Atom   1C    basis set group =>   1
Atom   2H    basis set group =>   2
Atom   3C    basis set group =>   1
Atom   4H    basis set group =>   2
Atom   5C    basis set group =>   1
Atom   6C    basis set group =>   1
Atom   7H    basis set group =>   2
Atom   8C    basis set group =>   1
Atom   9H    basis set group =>   2
Atom  10C    basis set group =>   1
Atom  11H    basis set group =>   2
Atom  12C    basis set group =>   1
Atom  13H    basis set group =>   2
Atom  14C    basis set group =>   1
Atom  15C    basis set group =>   1
Atom  16H    basis set group =>   2
Atom  17H    basis set group =>   2
Atom  18C    basis set group =>   1
Atom  19H    basis set group =>   2
Atom  20C    basis set group =>   1
Atom  21H    basis set group =>   2
Atom  22H    basis set group =>   2
Atom  23C    basis set group =>   1
Atom  24H    basis set group =>   2
Atom  25C    basis set group =>   1
Atom  26H    basis set group =>   2
Atom  27H    basis set group =>   2
Atom  28C    basis set group =>   1
Atom  29H    basis set group =>   2
Atom  30H    basis set group =>   2
Atom  31C    basis set group =>   1
Atom  32H    basis set group =>   2
Atom  33C    basis set group =>   1
Atom  34H    basis set group =>   2
Atom  35H    basis set group =>   2
Atom  36C    basis set group =>   1
Atom  37H    basis set group =>   2
Atom  38H    basis set group =>   2
Atom  39C    basis set group =>   1
Atom  40C    basis set group =>   1
Atom  41H    basis set group =>   2
Atom  42H    basis set group =>   2
Atom  43C    basis set group =>   1
Atom  44H    basis set group =>   2
Atom  45C    basis set group =>   1
Atom  46H    basis set group =>   2
Atom  47H    basis set group =>   2
Atom  48C    basis set group =>   1
Atom  49H    basis set group =>   2
Atom  50C    basis set group =>   1
Atom  51H    basis set group =>   2
Atom  52H    basis set group =>   2
Atom  53C    basis set group =>   1
Atom  54H    basis set group =>   2
Atom  55H    basis set group =>   2
Atom  56C    basis set group =>   1
Atom  57H    basis set group =>   2
Atom  58C    basis set group =>   1
Atom  59H    basis set group =>   2
Atom  60H    basis set group =>   2
Atom  61C    basis set group =>   1
Atom  62H    basis set group =>   2
Atom  63H    basis set group =>   2
---------------------------------
AUXILIARY/C BASIS SET INFORMATION
---------------------------------
There are 2 groups of distinct atoms

 Group   1 Type C   : 8s6p5d3f1g contracted to 8s6p4d3f1g pattern {11111111/111111/2111/111/1}
 Group   2 Type H   : 4s3p2d contracted to 4s2p1d pattern {1111/21/2}

Atom   0C    basis set group =>   1
Atom   1C    basis set group =>   1
Atom   2H    basis set group =>   2
Atom   3C    basis set group =>   1
Atom   4H    basis set group =>   2
Atom   5C    basis set group =>   1
Atom   6C    basis set group =>   1
Atom   7H    basis set group =>   2
Atom   8C    basis set group =>   1
Atom   9H    basis set group =>   2
Atom  10C    basis set group =>   1
Atom  11H    basis set group =>   2
Atom  12C    basis set group =>   1
Atom  13H    basis set group =>   2
Atom  14C    basis set group =>   1
Atom  15C    basis set group =>   1
Atom  16H    basis set group =>   2
Atom  17H    basis set group =>   2
Atom  18C    basis set group =>   1
Atom  19H    basis set group =>   2
Atom  20C    basis set group =>   1
Atom  21H    basis set group =>   2
Atom  22H    basis set group =>   2
Atom  23C    basis set group =>   1
Atom  24H    basis set group =>   2
Atom  25C    basis set group =>   1
Atom  26H    basis set group =>   2
Atom  27H    basis set group =>   2
Atom  28C    basis set group =>   1
Atom  29H    basis set group =>   2
Atom  30H    basis set group =>   2
Atom  31C    basis set group =>   1
Atom  32H    basis set group =>   2
Atom  33C    basis set group =>   1
Atom  34H    basis set group =>   2
Atom  35H    basis set group =>   2
Atom  36C    basis set group =>   1
Atom  37H    basis set group =>   2
Atom  38H    basis set group =>   2
Atom  39C    basis set group =>   1
Atom  40C    basis set group =>   1
Atom  41H    basis set group =>   2
Atom  42H    basis set group =>   2
Atom  43C    basis set group =>   1
Atom  44H    basis set group =>   2
Atom  45C    basis set group =>   1
Atom  46H    basis set group =>   2
Atom  47H    basis set group =>   2
Atom  48C    basis set group =>   1
Atom  49H    basis set group =>   2
Atom  50C    basis set group =>   1
Atom  51H    basis set group =>   2
Atom  52H    basis set group =>   2
Atom  53C    basis set group =>   1
Atom  54H    basis set group =>   2
Atom  55H    basis set group =>   2
Atom  56C    basis set group =>   1
Atom  57H    basis set group =>   2
Atom  58C    basis set group =>   1
Atom  59H    basis set group =>   2
Atom  60H    basis set group =>   2
Atom  61C    basis set group =>   1
Atom  62H    basis set group =>   2
Atom  63H    basis set group =>   2

Checking for AutoStart:
The File: 10.gbw exists
Trying to determine its content:
     ... Fine, the file contains calculation information
     ... Fine, the calculation information was read
     ... Fine, the file contains a basis set
     ... Fine, the basis set was read
     ... Fine, the file contains a geometry
     ... Fine, the geometry was read
     ... Fine, the file contains a set of orbitals
     ... Fine, the orbitals can be read
     => possible old guess file was deleted
     => GBW file was renamed to GES file
     => GES file is set as startup file
     => Guess is set to MORead
     ... now leaving AutoStart



           ************************************************************
           *        Program running with 16 parallel MPI-processes    *
           *              working on a common directory               *
           ************************************************************
------------------------------------------------------------------------------
                             ORCA STARTUP CALCULATIONS
                           -- RI-GTO INTEGRALS CHOSEN --
------------------------------------------------------------------------------
------------------------------------------------------------------------------
                   ___                                                        
                  /   \      - P O W E R E D   B Y -                         
                 /     \                                                     
                 |  |  |   _    _      __       _____    __    __             
                 |  |  |  | |  | |    /  \     |  _  \  |  |  /  |          
                  \  \/   | |  | |   /    \    | | | |  |  | /  /          
                 / \  \   | |__| |  /  /\  \   | |_| |  |  |/  /          
                |  |  |   |  __  | /  /__\  \  |    /   |      \           
                |  |  |   | |  | | |   __   |  |    \   |  |\   \          
                \     /   | |  | | |  |  |  |  | |\  \  |  | \   \       
                 \___/    |_|  |_| |__|  |__|  |_| \__\ |__|  \__/        
                                                                              
                      - O R C A' S   B I G   F R I E N D -                    
                                      &                                       
                       - I N T E G R A L  F E E D E R -                       
                                                                              
 v1 FN, 2020, v2 2021                                                         
------------------------------------------------------------------------------


----------------------
SHARK INTEGRAL PACKAGE
----------------------

Number of atoms                             ...     64
Number of basis functions                   ...    888
Number of shells                            ...    424
Maximum angular momentum                    ...      2
Integral batch strategy                     ... SHARK/LIBINT Hybrid
RI-J (if used) integral strategy            ... SPLIT-RIJ (Revised 2003 algorithm where possible)
Printlevel                                  ...      1
Contraction scheme used                     ... SEGMENTED contraction
Prescreening option                         ... SCHWARTZ
   Thresh                                   ... 1.000e-12
   Tcut                                     ... 1.000e-14
   Tpresel                                  ... 1.000e-14 
Coulomb Range Separation                    ... NOT USED
Exchange Range Separation                   ... NOT USED
Multipole approximations                    ... NOT USED
Finite Nucleus Model                        ... NOT USED
CABS basis                                  ... NOT available
Auxiliary Coulomb fitting basis             ... AVAILABLE
   # of basis functions in Aux-J            ...   1768
   # of shells in Aux-J                     ...    600
   Maximum angular momentum in Aux-J        ...      4
Auxiliary J/K fitting basis                 ... NOT available
Auxiliary Correlation fitting basis         ... AVAILABLE
   # of basis functions in Aux-C            ...   2668
   # of shells in Aux-C                     ...    868
   Maximum angular momentum in Aux-C        ...      4
Auxiliary 'external' fitting basis          ... NOT available

Calculating pre-screening integrals         ... done (  0.0 sec) Dimension = 424
Organizing shell pair data                  ... done (  0.7 sec)
Shell pair information
Total number of shell pairs                 ...     90100
Shell pairs after pre-screening             ...     61615
Total number of primitive shell pairs       ...    280850
Primitive shell pairs kept                  ...    128706
          la=0 lb=0:  20496 shell pairs
          la=1 lb=0:  20822 shell pairs
          la=1 lb=1:   5307 shell pairs
          la=2 lb=0:   9278 shell pairs
          la=2 lb=1:   4655 shell pairs
          la=2 lb=2:   1057 shell pairs

Calculating one electron integrals          ... done (  0.1 sec)
Calculating RI/J V-Matrix + Cholesky decomp.... done (  0.2 sec)
Calculating RI/C V-Matrix + Cholesky decomp.... done (  0.4 sec)
Calculating Nuclear repulsion               ... done (  0.0 sec) ENN=   2706.555978966377 Eh

-------------------
DFT GRID GENERATION
-------------------

General Integration Accuracy     IntAcc      ... 4.388
Radial Grid Type                 RadialGrid  ... OptM3 with GC (2021)
Angular Grid (max. ang.)         AngularGrid ... 4 (Lebedev-302)
Angular grid pruning method      GridPruning ... 4 (adaptive)
Weight generation scheme         WeightScheme... mBecke (2022)
Basis function cutoff            BFCut       ... 1.0000e-12
Integration weight cutoff        WCut        ... 1.0000e-14
Partially contracted basis set               ... off
Rotationally invariant grid construction     ... off
Angular grids for H and He will be reduced by one unit

Total number of grid points                  ...   276699
Total number of batches                      ...     4354
Average number of points per batch           ...       63
Average number of grid points per atom       ...     4323

--------------------
COSX GRID GENERATION
--------------------

GRIDX 1
-------
General Integration Accuracy     IntAcc      ... 3.816
Radial Grid Type                 RadialGrid  ... OptM3 with GC (2021)
Angular Grid (max. ang.)         AngularGrid ... 1 (Lebedev-50)
Angular grid pruning method      GridPruning ... 4 (adaptive)
Weight generation scheme         WeightScheme... mBecke (2022)
Basis function cutoff            BFCut       ... 1.0000e-12
Integration weight cutoff        WCut        ... 1.0000e-14
Partially contracted basis set               ... on
Rotationally invariant grid construction     ... off
Angular grids for H and He will NOT be reduced by one unit

Total number of grid points                  ...    40345
Total number of batches                      ...      356
Average number of points per batch           ...      113
Average number of grid points per atom       ...      630
UseSFitting                                  ... on

GRIDX 2
-------
General Integration Accuracy     IntAcc      ... 4.020
Radial Grid Type                 RadialGrid  ... OptM3 with GC (2021)
Angular Grid (max. ang.)         AngularGrid ... 2 (Lebedev-110)
Angular grid pruning method      GridPruning ... 4 (adaptive)
Weight generation scheme         WeightScheme... mBecke (2022)
Basis function cutoff            BFCut       ... 1.0000e-12
Integration weight cutoff        WCut        ... 1.0000e-14
Partially contracted basis set               ... on
Rotationally invariant grid construction     ... off
Angular grids for H and He will NOT be reduced by one unit

Total number of grid points                  ...    97754
Total number of batches                      ...      798
Average number of points per batch           ...      122
Average number of grid points per atom       ...     1527
UseSFitting                                  ... on

GRIDX 3
-------
General Integration Accuracy     IntAcc      ... 4.338
Radial Grid Type                 RadialGrid  ... OptM3 with GC (2021)
Angular Grid (max. ang.)         AngularGrid ... 3 (Lebedev-194)
Angular grid pruning method      GridPruning ... 4 (adaptive)
Weight generation scheme         WeightScheme... mBecke (2022)
Basis function cutoff            BFCut       ... 1.0000e-12
Integration weight cutoff        WCut        ... 1.0000e-14
Partially contracted basis set               ... on
Rotationally invariant grid construction     ... off
Angular grids for H and He will NOT be reduced by one unit

Total number of grid points                  ...   208618
Total number of batches                      ...     1665
Average number of points per batch           ...      125
Average number of grid points per atom       ...     3260
UseSFitting                                  ... on
Initializing property integral containers    ... done (  0.1 sec)

SHARK setup successfully completed in  20.2 seconds

Maximum memory used throughout the entire STARTUP-calculation: 139.2 MB


           ************************************************************
           *        Program running with 16 parallel MPI-processes    *
           *              working on a common directory               *
           ************************************************************

------------------------------------------------------------------------------
                         ORCA PROPERTY INTEGRAL CALCULATIONS
------------------------------------------------------------------------------

GBWName                                   ... 10.gbw
Number of atoms                           ...     64
Number of basis functions                 ...    888
Max core memory                           ...   4000 MB

Dipole integrals                          ... YES
Quadrupole integrals                      ...  NO
Linear Momentum integrals                 ...  NO
Angular Momentum integrals                ...  NO
Higher Moments length integrals           ...  NO
Higher Moments velocity integrals         ...  NO
Kinetic energy integrals                  ...  NO
GIAO Right Hand Sides                     ...  NO
GIAO dipole derivative integrals          ...  NO
SOC integrals                             ...  NO
EPR diamagnetic integrals (GIAO)          ...  NO
EPR gauge integrals                       ...  NO
Field gradient integrals                  ...  NO (   0 nuclei)
Spin-dipole/Fermi contact integrals       ...  NO (   0 nuclei)
Nucleus-orbit integrals                   ...  NO (   0 nuclei)
Geometric perturbations                   ...  NO (  64 nuclei)
Electric origin: ( 15.8377, 12.4368, 39.8383) 
Magnetic origin: (  0.0000,  0.0000,  0.0000) 

Calculating integrals                     ... Electric Dipole (Length)     done (  0.3 sec)

Property integrals calculated in   0.4 sec

Maximum memory used throughout the entire PROPINT-calculation: 220.3 MB


           ************************************************************
           *        Program running with 16 parallel MPI-processes    *
           *              working on a common directory               *
           ************************************************************
-------------------------------------------------------------------------------
                                 ORCA GUESS
                   Start orbitals & Density for SCF / CASSCF
-------------------------------------------------------------------------------

------------
SCF SETTINGS
------------
Hamiltonian:
 Ab initio Hamiltonian  Method          .... Hartree-Fock(GTOs)
 RI-approximation to the Coulomb term is turned on
   Number of AuxJ basis functions       .... 1768
   RIJ-COSX (HFX calculated with COS-X)).... on


General Settings:
 Integral files         IntName         .... 10
 Hartree-Fock type      HFTyp           .... RHF
 Total Charge           Charge          ....    0
 Multiplicity           Mult            ....    1
 Number of Electrons    NEL             ....  204
 Basis Dimension        Dim             ....  888
 Nuclear Repulsion      ENuc            ....   2706.5559789664 Eh

Convergence Acceleration:
 AO-DIIS                CNVDIIS         .... on
   Start iteration      DIISMaxIt       ....    12
   Startup error        DIISStart       ....  0.200000
   # of expansion vecs  DIISMaxEq       ....     5
   Bias factor          DIISBfac        ....   1.050
   Max. coefficient     DIISMaxC        ....  10.000
 MO-DIIS                CNVKDIIS        .... off
 Trust-Rad. Augm. Hess. CNVTRAH         .... auto
   Auto Start mean grad. ratio tolernc. ....  1.125000
   Auto Start start iteration           ....     1
   Auto Start num. interpolation iter.  ....    10
   Max. Number of Micro iterations      ....    24
   Max. Number of Macro iterations      .... Maxiter - #DIIS iter
   Number of Davidson start vectors     ....     2
   Converg. threshold    (grad. norm)   ....   2.000e-06
   Grad. Scal. Fac. for Micro threshold ....   0.100
   Minimum threshold for Micro iter.    ....   1.000e-02
   NR start threshold (gradient norm)   ....   1.000e-04
   Initial trust radius                 ....   0.400
   Minimum AH scaling param. (alpha)    ....   1.000
   Maximum AH scaling param. (alpha)    .... 1000.000
   Quad. conv. algorithm                .... NR
   White noise on init. David. guess    .... on
   Maximum white noise                  ....   0.010
   Pseudo random numbers                .... off
   Inactive MOs                         .... canonical
   Orbital update algorithm             .... Taylor
   Preconditioner                       .... Diag
   Full preconditioner red. dimension   ....   250
 SOSCF                  CNVSOSCF        .... on
   Start iteration      SOSCFMaxIt      ....   150
   Startup grad/error   SOSCFStart      ....  0.003300
 Level Shifting         CNVShift        .... on
   Level shift para.    LevelShift      ....    0.2500
   Turn off err/grad.   ShiftErr        ....    0.0010
 Zerner damping         CNVZerner       .... off
 Static damping         CNVDamp         .... on
   Fraction old density DampFac         ....    0.7000
   Max. Damping (<1)    DampMax         ....    0.9800
   Min. Damping (>=0)   DampMin         ....    0.0000
   Turn off err/grad.   DampErr         ....    0.1000

SCF Procedure:
 Maximum # iterations   MaxIter         ....   999
 SCF integral mode      SCFMode         .... Direct
   Integral package                     .... SHARK and LIBINT hybrid scheme
 Reset frequency        DirectResetFreq ....    20
 Integral Threshold     Thresh          ....  1.000e-12 Eh
 Primitive CutOff       TCut            ....  1.000e-14 Eh

Convergence Tolerance:
 Convergence Check Mode ConvCheckMode   .... Total+1el-Energy
 Convergence forced     ConvForced      .... 1
 Energy Change          TolE            ....  1.000e-09 Eh
 1-El. energy change                    ....  1.000e-06 Eh
 Orbital Gradient       TolG            ....  2.000e-06
 Orbital Rotation angle TolX            ....  2.000e-06
 DIIS Error             TolErr          ....  1.000e-08


Diagonalization of the overlap matrix:
Smallest eigenvalue                        ... 1.627e-05
Time for diagonalization                   ...    0.097 sec
Threshold for overlap eigenvalues          ... 1.000e-08
Number of eigenvalues below threshold      ... 0
Time for construction of square roots      ...    0.096 sec
Total time needed                          ...    0.204 sec

---------------------
INITIAL GUESS: MOREAD
---------------------
Guess MOs are being read from file: 10.ges
Input Geometry matches current geometry (good)
Input basis set matches current basis set (good)
MOs were renormalized
MOs were reorthogonalized (Cholesky)
                      ------------------
                      INITIAL GUESS DONE (   0.3 sec)
                      ------------------
             **** ENERGY FILE WAS UPDATED (10.en.tmp) ****
Finished Guess after   1.4 sec
Maximum memory used throughout the entire GUESS-calculation: 94.5 MB


           ************************************************************
           *        Program running with 16 parallel MPI-processes    *
           *              working on a common directory               *
           ************************************************************

-------------------------------------------------------------------------------------------
                                           ORCA LEAN-SCF
                                     memory conserving SCF solver
-------------------------------------------------------------------------------------------

----------------------------------------D-I-I-S--------------------------------------------
Iteration    Energy (Eh)           Delta-E    RMSDP     MaxDP     MaxGrad   Damp  Time(sec)
-------------------------------------------------------------------------------------------
               ***  Starting incremental Fock matrix formation  ***
                            *** Initializing SOSCF(YES,NO) ***
---------------------------------------S-O-S-C-F--------------------------------------
Iteration    Energy (Eh)            Delta-E     RMSDP    MaxDP     MaxGrad    Time(sec)
--------------------------------------------------------------------------------------
    1    -1081.2810563436523807     0.00e+00  7.55e-09  5.37e-07  2.32e-07  12.1
               *** Restarting incremental Fock matrix formation ***
    2    -1081.2810563436796656    -2.73e-11  6.02e-09  4.56e-07  5.86e-08  11.4
                 **** Energy Check signals convergence ****

               *****************************************************
               *                     SUCCESS                       *
               *           SCF CONVERGED AFTER   2 CYCLES          *
               *****************************************************

             **** ENERGY FILE WAS UPDATED (10.en.tmp) ****

----------------
TOTAL SCF ENERGY
----------------

Total Energy       :      -1081.28105634367967 Eh          -29423.15339 eV

Components:
Nuclear Repulsion  :       2706.55597896637664 Eh           73649.13244 eV
Electronic Energy  :      -3787.83703531005631 Eh         -103072.28582 eV
One Electron Energy:      -6849.54534785452688 Eh         -186385.60458 eV
Two Electron Energy:       3061.70831254447057 Eh           83313.31875 eV

Virial components:
Potential Energy   :      -2168.51875381098807 Eh          -59008.39522 eV
Kinetic Energy     :       1087.23769746730841 Eh           29585.24183 eV
Virial Ratio       :          1.99452130740361



---------------
SCF CONVERGENCE
---------------

  Last Energy change         ...    2.7285e-11  Tolerance :   1.0000e-09
  Last MAX-Density change    ...    4.5553e-07  Tolerance :   1.0000e-08
  Last RMS-Density change    ...    6.0154e-09  Tolerance :   1.0000e-09

----------------
ORBITAL ENERGIES
----------------

  NO   OCC          E(Eh)            E(eV) 
   0   2.0000     -11.222397      -305.3769 
   1   2.0000     -11.219928      -305.3098 
   2   2.0000     -11.219007      -305.2847 
   3   2.0000     -11.216634      -305.2201 
   4   2.0000     -11.206165      -304.9353 
   5   2.0000     -11.205212      -304.9093 
   6   2.0000     -11.204291      -304.8843 
   7   2.0000     -11.203362      -304.8590 
   8   2.0000     -11.197566      -304.7013 
   9   2.0000     -11.194737      -304.6243 
  10   2.0000     -11.194588      -304.6202 
  11   2.0000     -11.193619      -304.5939 
  12   2.0000     -11.192557      -304.5649 
  13   2.0000     -11.192280      -304.5574 
  14   2.0000     -11.191375      -304.5328 
  15   2.0000     -11.189561      -304.4834 
  16   2.0000     -11.178619      -304.1857 
  17   2.0000     -11.177450      -304.1539 
  18   2.0000     -11.175466      -304.0999 
  19   2.0000     -11.174650      -304.0777 
  20   2.0000     -11.174282      -304.0677 
  21   2.0000     -11.173868      -304.0564 
  22   2.0000     -11.173381      -304.0431 
  23   2.0000     -11.172436      -304.0174 
  24   2.0000     -11.171934      -304.0038 
  25   2.0000     -11.170862      -303.9746 
  26   2.0000     -11.170607      -303.9677 
  27   2.0000     -11.170472      -303.9640 
  28   2.0000      -1.169444       -31.8222 
  29   2.0000      -1.167028       -31.7565 
  30   2.0000      -1.126723       -30.6597 
  31   2.0000      -1.085959       -29.5504 
  32   2.0000      -1.067061       -29.0362 
  33   2.0000      -1.046675       -28.4815 
  34   2.0000      -1.045220       -28.4419 
  35   2.0000      -1.043113       -28.3845 
  36   2.0000      -1.042673       -28.3726 
  37   2.0000      -1.027876       -27.9699 
  38   2.0000      -1.020605       -27.7721 
  39   2.0000      -0.951769       -25.8989 
  40   2.0000      -0.932682       -25.3796 
  41   2.0000      -0.931052       -25.3352 
  42   2.0000      -0.930566       -25.3220 
  43   2.0000      -0.927634       -25.2422 
  44   2.0000      -0.893150       -24.3039 
  45   2.0000      -0.825108       -22.4523 
  46   2.0000      -0.821766       -22.3614 
  47   2.0000      -0.814981       -22.1768 
  48   2.0000      -0.814222       -22.1561 
  49   2.0000      -0.811397       -22.0792 
  50   2.0000      -0.800253       -21.7760 
  51   2.0000      -0.776338       -21.1252 
  52   2.0000      -0.749794       -20.4029 
  53   2.0000      -0.722799       -19.6684 
  54   2.0000      -0.722106       -19.6495 
  55   2.0000      -0.688208       -18.7271 
  56   2.0000      -0.683262       -18.5925 
  57   2.0000      -0.653639       -17.7864 
  58   2.0000      -0.646135       -17.5822 
  59   2.0000      -0.638354       -17.3705 
  60   2.0000      -0.637712       -17.3530 
  61   2.0000      -0.637192       -17.3389 
  62   2.0000      -0.636622       -17.3234 
  63   2.0000      -0.635931       -17.3046 
  64   2.0000      -0.634293       -17.2600 
  65   2.0000      -0.623437       -16.9646 
  66   2.0000      -0.612055       -16.6549 
  67   2.0000      -0.597133       -16.2488 
  68   2.0000      -0.581711       -15.8292 
  69   2.0000      -0.578121       -15.7315 
  70   2.0000      -0.575932       -15.6719 
  71   2.0000      -0.573184       -15.5971 
  72   2.0000      -0.572067       -15.5667 
  73   2.0000      -0.564559       -15.3624 
  74   2.0000      -0.557728       -15.1766 
  75   2.0000      -0.551126       -14.9969 
  76   2.0000      -0.549034       -14.9400 
  77   2.0000      -0.547990       -14.9116 
  78   2.0000      -0.547694       -14.9035 
  79   2.0000      -0.522601       -14.2207 
  80   2.0000      -0.516576       -14.0568 
  81   2.0000      -0.483422       -13.1546 
  82   2.0000      -0.475122       -12.9287 
  83   2.0000      -0.472889       -12.8680 
  84   2.0000      -0.464564       -12.6414 
  85   2.0000      -0.463751       -12.6193 
  86   2.0000      -0.459908       -12.5147 
  87   2.0000      -0.459357       -12.4997 
  88   2.0000      -0.458305       -12.4711 
  89   2.0000      -0.457151       -12.4397 
  90   2.0000      -0.452399       -12.3104 
  91   2.0000      -0.451917       -12.2973 
  92   2.0000      -0.417182       -11.3521 
  93   2.0000      -0.407103       -11.0778 
  94   2.0000      -0.406065       -11.0496 
  95   2.0000      -0.402302       -10.9472 
  96   2.0000      -0.399604       -10.8738 
  97   2.0000      -0.399413       -10.8686 
  98   2.0000      -0.391697       -10.6586 
  99   2.0000      -0.343375        -9.3437 
 100   2.0000      -0.339817        -9.2469 
 101   2.0000      -0.301425        -8.2022 
 102   0.0000       0.124762         3.3949 
 103   0.0000       0.131598         3.5810 
 104   0.0000       0.135164         3.6780 
 105   0.0000       0.156755         4.2655 
 106   0.0000       0.160279         4.3614 
 107   0.0000       0.163370         4.4455 
 108   0.0000       0.164678         4.4811 
 109   0.0000       0.165663         4.5079 
 110   0.0000       0.169845         4.6217 
 111   0.0000       0.174807         4.7567 
 112   0.0000       0.176980         4.8159 

                    ********************************
                    * MULLIKEN POPULATION ANALYSIS *
                    ********************************

-------------------------
MULLIKEN FRAGMENT CHARGES
-------------------------
 Fragment   0 :   0.000000
 Fragment   1 :   0.000000
 Fragment   2 :   0.000000
 Fragment   3 :   0.000000
 Fragment   4 :   0.000000
 Fragment   5 :   0.000000
 Fragment   6 :   0.000000
 Fragment   7 :   0.000000
 Fragment   8 :   0.000000
 Fragment   9 :   0.000000
Sum of fragment charges:    0.0000000

---------------------------------
MULLIKEN FRAGMENT OVERLAP CHARGES
---------------------------------
                  0          1          2          3          4          5    
      0       0.000000   0.000000   0.000000   0.000000   0.000000   0.000000
      1       0.000000   0.000000   0.000000   0.000000   0.000000   0.000000
      2       0.000000   0.000000   0.000000   0.000000   0.000000   0.000000
      3       0.000000   0.000000   0.000000   0.000000   0.000000   0.000000
      4       0.000000   0.000000   0.000000   0.000000   0.000000   0.000000
      5       0.000000   0.000000   0.000000   0.000000   0.000000   0.000000
      6       0.000000   0.000000   0.000000   0.000000   0.000000   0.000000
      7       0.000000   0.000000   0.000000   0.000000   0.000000   0.000000
      8       0.000000   0.000000   0.000000   0.000000   0.000000   0.000000
      9       0.000000   0.000000   0.000000   0.000000   0.000000   0.000000
                  6          7          8          9    
      0       0.000000   0.000000   0.000000   0.000000
      1       0.000000   0.000000   0.000000   0.000000
      2       0.000000   0.000000   0.000000   0.000000
      3       0.000000   0.000000   0.000000   0.000000
      4       0.000000   0.000000   0.000000   0.000000
      5       0.000000   0.000000   0.000000   0.000000
      6       0.000000   0.000000   0.000000   0.000000
      7       0.000000   0.000000   0.000000   0.000000
      8       0.000000   0.000000   0.000000   0.000000
      9       0.000000   0.000000   0.000000 248.094768

-----------------------
MULLIKEN ATOMIC CHARGES
-----------------------
   0 C :    0.250732
   1 C :   -0.102572
   2 H :    0.078874
   3 C :   -0.086877
   4 H :    0.078788
   5 C :    0.286307
   6 C :   -0.353252
   7 H :    0.064522
   8 C :   -0.041351
   9 H :    0.065133
  10 C :   -0.062377
  11 H :    0.065026
  12 C :   -0.355949
  13 H :    0.064008
  14 C :    0.355958
  15 C :   -0.472075
  16 H :    0.096330
  17 H :    0.093241
  18 C :    0.342737
  19 H :    0.093222
  20 C :   -0.431649
  21 H :    0.075819
  22 H :    0.091585
  23 C :    0.361596
  24 H :    0.092161
  25 C :   -0.444833
  26 H :    0.086028
  27 H :    0.081947
  28 C :   -0.460338
  29 H :    0.091578
  30 H :    0.084353
  31 C :    0.312781
  32 H :    0.097082
  33 C :   -0.424233
  34 H :    0.074851
  35 H :    0.093807
  36 C :   -0.425069
  37 H :    0.077428
  38 H :    0.090190
  39 C :    0.328258
  40 C :   -0.476971
  41 H :    0.091007
  42 H :    0.097415
  43 C :    0.343424
  44 H :    0.094878
  45 C :   -0.429715
  46 H :    0.091011
  47 H :    0.077492
  48 C :    0.367991
  49 H :    0.091520
  50 C :   -0.440793
  51 H :    0.086383
  52 H :    0.079258
  53 C :   -0.449427
  54 H :    0.084506
  55 H :    0.087778
  56 C :    0.317327
  57 H :    0.095107
  58 C :   -0.428872
  59 H :    0.074005
  60 H :    0.092817
  61 C :   -0.427499
  62 H :    0.076064
  63 H :    0.091530
Sum of atomic charges:    0.0000000

--------------------------------
MULLIKEN REDUCED ORBITAL CHARGES
--------------------------------
  0 C s       :     3.141402  s :     3.141402
      pz      :     0.736490  p :     2.441052
      px      :     0.807192
      py      :     0.897370
      dz2     :     0.041253  d :     0.166814
      dxz     :     0.063548
      dyz     :     0.016533
      dx2y2   :     0.016907
      dxy     :     0.028573

  1 C s       :     3.064050  s :     3.064050
      pz      :     0.968398  p :     2.914384
      px      :     0.940896
      py      :     1.005091
      dz2     :     0.037378  d :     0.124138
      dxz     :     0.038383
      dyz     :     0.016418
      dx2y2   :     0.015330
      dxy     :     0.016628

  2 H s       :     0.888796  s :     0.888796
      pz      :     0.010593  p :     0.032330
      px      :     0.014111
      py      :     0.007626

  3 C s       :     3.067954  s :     3.067954
      pz      :     0.936306  p :     2.897418
      px      :     1.032419
      py      :     0.928693
      dz2     :     0.036270  d :     0.121506
      dxz     :     0.018575
      dyz     :     0.035560
      dx2y2   :     0.014475
      dxy     :     0.016626

  4 H s       :     0.888640  s :     0.888640
      pz      :     0.010407  p :     0.032572
      px      :     0.010112
      py      :     0.012054

  5 C s       :     3.127430  s :     3.127430
      pz      :     0.745296  p :     2.421115
      px      :     0.848786
      py      :     0.827034
      dz2     :     0.041316  d :     0.165148
      dxz     :     0.025841
      dyz     :     0.052705
      dx2y2   :     0.018428
      dxy     :     0.026858

  6 C s       :     3.245007  s :     3.245007
      pz      :     1.002028  p :     2.989694
      px      :     0.998553
      py      :     0.989113
      dz2     :     0.017488  d :     0.118551
      dxz     :     0.018879
      dyz     :     0.016218
      dx2y2   :     0.028962
      dxy     :     0.037004

  7 H s       :     0.903748  s :     0.903748
      pz      :     0.006858  p :     0.031730
      px      :     0.007765
      py      :     0.017107

  8 C s       :     3.050110  s :     3.050110
      pz      :     0.951105  p :     2.876492
      px      :     0.993845
      py      :     0.931542
      dz2     :     0.013474  d :     0.114750
      dxz     :     0.021113
      dyz     :     0.014974
      dx2y2   :     0.033864
      dxy     :     0.031325

  9 H s       :     0.903577  s :     0.903577
      pz      :     0.008772  p :     0.031290
      px      :     0.007529
      py      :     0.014989

 10 C s       :     3.055359  s :     3.055359
      pz      :     0.959349  p :     2.891451
      px      :     0.956645
      py      :     0.975457
      dz2     :     0.014503  d :     0.115568
      dxz     :     0.011093
      dyz     :     0.025558
      dx2y2   :     0.022459
      dxy     :     0.041955

 11 H s       :     0.903593  s :     0.903593
      pz      :     0.008988  p :     0.031381
      px      :     0.017015
      py      :     0.005378

 12 C s       :     3.260391  s :     3.260391
      pz      :     0.995551  p :     2.975847
      px      :     1.017108
      py      :     0.963188
      dz2     :     0.018513  d :     0.119711
      dxz     :     0.018193
      dyz     :     0.018075
      dx2y2   :     0.036868
      dxy     :     0.028063

 13 H s       :     0.904422  s :     0.904422
      pz      :     0.006762  p :     0.031570
      px      :     0.010952
      py      :     0.013856

 14 C s       :     2.566480  s :     2.566480
      pz      :     0.898332  p :     2.879687
      px      :     1.006113
      py      :     0.975242
      dz2     :     0.052340  d :     0.197875
      dxz     :     0.027458
      dyz     :     0.036558
      dx2y2   :     0.037987
      dxy     :     0.043532

 15 C s       :     3.198292  s :     3.198292
      pz      :     1.033104  p :     3.172262
      px      :     1.090546
      py      :     1.048613
      dz2     :     0.029080  d :     0.101520
      dxz     :     0.016849
      dyz     :     0.022705
      dx2y2   :     0.013953
      dxy     :     0.018933

 16 H s       :     0.875655  s :     0.875655
      pz      :     0.007051  p :     0.028014
      px      :     0.015361
      py      :     0.005602

 17 H s       :     0.879003  s :     0.879003
      pz      :     0.005051  p :     0.027757
      px      :     0.008731
      py      :     0.013975

 18 C s       :     2.655592  s :     2.655592
      pz      :     0.956058  p :     2.856888
      px      :     0.953897
      py      :     0.946932
      dz2     :     0.036229  d :     0.144783
      dxz     :     0.028503
      dyz     :     0.023224
      dx2y2   :     0.024733
      dxy     :     0.032094

 19 H s       :     0.879345  s :     0.879345
      pz      :     0.007411  p :     0.027433
      px      :     0.007074
      py      :     0.012948

 20 C s       :     3.217461  s :     3.217461
      pz      :     1.057047  p :     3.112634
      px      :     1.015180
      py      :     1.040407
      dz2     :     0.023284  d :     0.101553
      dxz     :     0.016200
      dyz     :     0.012274
      dx2y2   :     0.020174
      dxy     :     0.029621

 21 H s       :     0.896698  s :     0.896698
      pz      :     0.005087  p :     0.027483
      px      :     0.009096
      py      :     0.013300

 22 H s       :     0.880958  s :     0.880958
      pz      :     0.017203  p :     0.027457
      px      :     0.004926
      py      :     0.005329

 23 C s       :     2.644807  s :     2.644807
      pz      :     0.944396  p :     2.851223
      px      :     0.954701
      py      :     0.952126
      dz2     :     0.035695  d :     0.142374
      dxz     :     0.021478
      dyz     :     0.029532
      dx2y2   :     0.025965
      dxy     :     0.029705

 24 H s       :     0.880182  s :     0.880182
      pz      :     0.006902  p :     0.027657
      px      :     0.015699
      py      :     0.005056

 25 C s       :     3.141238  s :     3.141238
      pz      :     1.091691  p :     3.203871
      px      :     1.028280
      py      :     1.083900
      dz2     :     0.027568  d :     0.099723
      dxz     :     0.024707
      dyz     :     0.014895
      dx2y2   :     0.012314
      dxy     :     0.020238

 26 H s       :     0.886249  s :     0.886249
      pz      :     0.007756  p :     0.027722
      px      :     0.007747
      py      :     0.012219

 27 H s       :     0.890084  s :     0.890084
      pz      :     0.005159  p :     0.027969
      px      :     0.009663
      py      :     0.013146

 28 C s       :     3.206395  s :     3.206395
      pz      :     1.055322  p :     3.154720
      px      :     1.062114
      py      :     1.037284
      dz2     :     0.026817  d :     0.099223
      dxz     :     0.016862
      dyz     :     0.019523
      dx2y2   :     0.015744
      dxy     :     0.020278

 29 H s       :     0.880671  s :     0.880671
      pz      :     0.007739  p :     0.027751
      px      :     0.007163
      py      :     0.012849

 30 H s       :     0.887525  s :     0.887525
      pz      :     0.007433  p :     0.028122
      px      :     0.015441
      py      :     0.005248

 31 C s       :     2.680812  s :     2.680812
      pz      :     0.945764  p :     2.862952
      px      :     0.957065
      py      :     0.960124
      dz2     :     0.038080  d :     0.143455
      dxz     :     0.028466
      dyz     :     0.023835
      dx2y2   :     0.022606
      dxy     :     0.030468

 32 H s       :     0.875374  s :     0.875374
      pz      :     0.004814  p :     0.027545
      px      :     0.009190
      py      :     0.013541

 33 C s       :     3.224247  s :     3.224247
      pz      :     1.058033  p :     3.102389
      px      :     1.056921
      py      :     0.987435
      dz2     :     0.021083  d :     0.097597
      dxz     :     0.009964
      dyz     :     0.017349
      dx2y2   :     0.024196
      dxy     :     0.025003

 34 H s       :     0.897450  s :     0.897450
      pz      :     0.006726  p :     0.027699
      px      :     0.015795
      py      :     0.005178

 35 H s       :     0.878542  s :     0.878542
      pz      :     0.017073  p :     0.027651
      px      :     0.005282
      py      :     0.005295

 36 C s       :     3.222246  s :     3.222246
      pz      :     1.062180  p :     3.104480
      px      :     0.999261
      py      :     1.043040
      dz2     :     0.020889  d :     0.098342
      dxz     :     0.015714
      dyz     :     0.011355
      dx2y2   :     0.022488
      dxy     :     0.027897

 37 H s       :     0.894930  s :     0.894930
      pz      :     0.007350  p :     0.027642
      px      :     0.007233
      py      :     0.013059

 38 H s       :     0.882186  s :     0.882186
      pz      :     0.016989  p :     0.027624
      px      :     0.004930
      py      :     0.005705

 39 C s       :     2.560029  s :     2.560029
      pz      :     0.910890  p :     2.911618
      px      :     1.000208
      py      :     1.000519
      dz2     :     0.051993  d :     0.200095
      dxz     :     0.037548
      dyz     :     0.028687
      dx2y2   :     0.036258
      dxy     :     0.045609

 40 C s       :     3.198360  s :     3.198360
      pz      :     1.036920  p :     3.177771
      px      :     1.040007
      py      :     1.100843
      dz2     :     0.028708  d :     0.100841
      dxz     :     0.025206
      dyz     :     0.014468
      dx2y2   :     0.011641
      dxy     :     0.020818

 41 H s       :     0.881199  s :     0.881199
      pz      :     0.004989  p :     0.027794
      px      :     0.010133
      py      :     0.012671

 42 H s       :     0.874411  s :     0.874411
      pz      :     0.007339  p :     0.028174
      px      :     0.007968
      py      :     0.012866

 43 C s       :     2.662557  s :     2.662557
      pz      :     0.951904  p :     2.851832
      px      :     0.951531
      py      :     0.948398
      dz2     :     0.035046  d :     0.142186
      dxz     :     0.023521
      dyz     :     0.027928
      dx2y2   :     0.024551
      dxy     :     0.031140

 44 H s       :     0.877494  s :     0.877494
      pz      :     0.007523  p :     0.027628
      px      :     0.014936
      py      :     0.005169

 45 C s       :     3.225708  s :     3.225708
      pz      :     1.055046  p :     3.105307
      px      :     1.012912
      py      :     1.037349
      dz2     :     0.022619  d :     0.098700
      dxz     :     0.016648
      dyz     :     0.011455
      dx2y2   :     0.018579
      dxy     :     0.029398

 46 H s       :     0.881368  s :     0.881368
      pz      :     0.017215  p :     0.027621
      px      :     0.005154
      py      :     0.005252

 47 H s       :     0.894875  s :     0.894875
      pz      :     0.005064  p :     0.027633
      px      :     0.009439
      py      :     0.013131

 48 C s       :     2.635030  s :     2.635030
      pz      :     0.947988  p :     2.853010
      px      :     0.955420
      py      :     0.949602
      dz2     :     0.035495  d :     0.143969
      dxz     :     0.030590
      dyz     :     0.022074
      dx2y2   :     0.023540
      dxy     :     0.032271

 49 H s       :     0.880970  s :     0.880970
      pz      :     0.006892  p :     0.027510
      px      :     0.007238
      py      :     0.013380

 50 C s       :     3.134376  s :     3.134376
      pz      :     1.090418  p :     3.205703
      px      :     1.070493
      py      :     1.044792
      dz2     :     0.027190  d :     0.100714
      dxz     :     0.019030
      dyz     :     0.022008
      dx2y2   :     0.012406
[...]
      dx2y2   :     0.101377
      dxy     :     0.083367
 62 H s       :     0.819206  s :     0.819206
      pz      :     0.025068  p :     0.082512
      px      :     0.035682
      py      :     0.021762
 63 H s       :     0.818853  s :     0.818853
      pz      :     0.039776  p :     0.082546
      px      :     0.021040
      py      :     0.021729


                      *****************************
                      * MAYER POPULATION ANALYSIS *
                      *****************************

  NA   - Mulliken gross atomic population
  ZA   - Total nuclear charge
  QA   - Mulliken gross atomic charge
  VA   - Mayer's total valence
  BVA  - Mayer's bonded valence
  FA   - Mayer's free valence

  ATOM       NA         ZA         QA         VA         BVA        FA
  0 C      5.7499     6.0000     0.2501     3.8161     3.4341     0.3820
  1 C      6.1142     6.0000    -0.1142     3.9140     3.5346     0.3794
  2 H      0.9126     1.0000     0.0874     0.9712     0.9177     0.0535
  3 C      6.1040     6.0000    -0.1040     3.8977     3.5136     0.3841
  4 H      0.9124     1.0000     0.0876     0.9711     0.9177     0.0534
  5 C      5.7184     6.0000     0.2816     3.7736     3.3879     0.3857
  6 C      6.3209     6.0000    -0.3209     4.1568     3.7591     0.3977
  7 H      0.9276     1.0000     0.0724     0.9784     0.9257     0.0527
  8 C      6.0587     6.0000    -0.0587     4.0067     3.6237     0.3830
  9 H      0.9245     1.0000     0.0755     0.9828     0.9281     0.0547
 10 C      6.0816     6.0000    -0.0816     4.0146     3.6317     0.3830
 11 H      0.9248     1.0000     0.0752     0.9834     0.9290     0.0544
 12 C      6.3155     6.0000    -0.3155     4.1462     3.7486     0.3976
 13 H      0.9278     1.0000     0.0722     0.9772     0.9241     0.0530
 14 C      5.7260     6.0000     0.2740     3.6649     3.3485     0.3164
 15 C      6.4061     6.0000    -0.4061     4.1536     3.8365     0.3172
 16 H      0.8853     1.0000     0.1147     0.9775     0.9222     0.0554
 17 H      0.8923     1.0000     0.1077     0.9791     0.9238     0.0553
 18 C      5.7994     6.0000     0.2006     3.6595     3.3497     0.3098
 19 H      0.9138     1.0000     0.0862     0.9452     0.8919     0.0533
 20 C      6.3788     6.0000    -0.3788     4.1269     3.8086     0.3183
 21 H      0.9077     1.0000     0.0923     0.9714     0.9153     0.0561
 22 H      0.8964     1.0000     0.1036     0.9644     0.9090     0.0553
 23 C      5.7779     6.0000     0.2221     3.6841     3.3728     0.3113
 24 H      0.9165     1.0000     0.0835     0.9501     0.8965     0.0536
 25 C      6.4117     6.0000    -0.4117     4.2244     3.8993     0.3251
 26 H      0.8967     1.0000     0.1033     0.9762     0.9212     0.0549
 27 H      0.9026     1.0000     0.0974     0.9776     0.9216     0.0559
 28 C      6.4113     6.0000    -0.4113     4.1800     3.8586     0.3214
 29 H      0.8935     1.0000     0.1065     0.9730     0.9175     0.0555
 30 H      0.8993     1.0000     0.1007     0.9704     0.9142     0.0563
 31 C      5.8170     6.0000     0.1830     3.6977     3.3852     0.3124
 32 H      0.9113     1.0000     0.0887     0.9442     0.8908     0.0534
 33 C      6.3682     6.0000    -0.3682     4.1076     3.7842     0.3233
 34 H      0.9088     1.0000     0.0912     0.9735     0.9175     0.0560
 35 H      0.8949     1.0000     0.1051     0.9643     0.9090     0.0552
 36 C      6.3737     6.0000    -0.3737     4.1270     3.8037     0.3233
 37 H      0.9069     1.0000     0.0931     0.9712     0.9153     0.0560
 38 H      0.8981     1.0000     0.1019     0.9654     0.9101     0.0553
 39 C      5.7541     6.0000     0.2459     3.7193     3.4033     0.3160
 40 C      6.4130     6.0000    -0.4130     4.1351     3.8177     0.3174
 41 H      0.8960     1.0000     0.1040     0.9769     0.9212     0.0557
 42 H      0.8869     1.0000     0.1131     0.9779     0.9224     0.0555
 43 C      5.7892     6.0000     0.2108     3.6571     3.3451     0.3120
 44 H      0.9144     1.0000     0.0856     0.9474     0.8938     0.0536
 45 C      6.3759     6.0000    -0.3759     4.1272     3.8053     0.3219
 46 H      0.8981     1.0000     0.1019     0.9654     0.9099     0.0555
 47 H      0.9068     1.0000     0.0932     0.9706     0.9145     0.0561
 48 C      5.7753     6.0000     0.2247     3.6837     3.3738     0.3099
 49 H      0.9169     1.0000     0.0831     0.9482     0.8946     0.0536
 50 C      6.4090     6.0000    -0.4090     4.2303     3.9053     0.3250
 51 H      0.8966     1.0000     0.1034     0.9775     0.9222     0.0553
 52 H      0.9037     1.0000     0.0963     0.9771     0.9217     0.0554
 53 C      6.3942     6.0000    -0.3942     4.1784     3.8576     0.3207
 54 H      0.9001     1.0000     0.0999     0.9702     0.9140     0.0562
 55 H      0.8971     1.0000     0.1029     0.9780     0.9223     0.0557
 56 C      5.8190     6.0000     0.1810     3.6891     3.3781     0.3110
 57 H      0.9130     1.0000     0.0870     0.9452     0.8919     0.0533
 58 C      6.3759     6.0000    -0.3759     4.1208     3.7993     0.3215
 59 H      0.9101     1.0000     0.0899     0.9740     0.9180     0.0560
 60 H      0.8955     1.0000     0.1045     0.9641     0.9090     0.0551
 61 C      6.3668     6.0000    -0.3668     4.1211     3.8008     0.3203
 62 H      0.9083     1.0000     0.0917     0.9720     0.9158     0.0561
 63 H      0.8973     1.0000     0.1027     0.9660     0.9108     0.0553

  Mayer bond orders larger than 0.100000
B(  0-C ,  1-C ) :   1.7396 B(  0-C , 12-C ) :   0.9479 B(  0-C , 14-C ) :   0.8367 
B(  1-C ,  2-H ) :   0.9517 B(  1-C ,  3-C ) :   0.8556 B(  3-C ,  4-H ) :   0.9571 
B(  3-C ,  5-C ) :   1.7155 B(  5-C ,  6-C ) :   0.9326 B(  5-C , 39-C ) :   0.8437 
B(  6-C ,  7-H ) :   0.9635 B(  6-C ,  8-C ) :   1.7826 B(  8-C ,  9-H ) :   0.9499 
B(  8-C , 10-C ) :   0.8995 B( 10-C , 11-H ) :   0.9511 B( 10-C , 12-C ) :   1.7821 
B( 12-C , 13-H ) :   0.9634 B( 14-C , 15-C ) :   0.8512 B( 14-C , 25-C ) :   0.9084 
B( 14-C , 28-C ) :   0.8726 B( 15-C , 16-H ) :   0.9588 B( 15-C , 17-H ) :   0.9607 
B( 15-C , 18-C ) :   0.8698 B( 18-C , 19-H ) :   0.9586 B( 18-C , 20-C ) :   0.8636 
B( 18-C , 33-C ) :   0.8547 B( 20-C , 21-H ) :   0.9578 B( 20-C , 22-H ) :   0.9648 
B( 20-C , 23-C ) :   0.8583 B( 23-C , 24-H ) :   0.9557 B( 23-C , 25-C ) :   0.8666 
B( 23-C , 36-C ) :   0.8650 B( 25-C , 26-H ) :   0.9623 B( 25-C , 27-H ) :   0.9590 
B( 28-C , 29-H ) :   0.9581 B( 28-C , 30-H ) :   0.9517 B( 28-C , 31-C ) :   0.8873 
B( 31-C , 32-H ) :   0.9549 B( 31-C , 33-C ) :   0.8562 B( 31-C , 36-C ) :   0.8672 
B( 33-C , 34-H ) :   0.9581 B( 33-C , 35-H ) :   0.9614 B( 36-C , 37-H ) :   0.9580 
B( 36-C , 38-H ) :   0.9602 B( 39-C , 40-C ) :   0.8690 B( 39-C , 50-C ) :   0.9109 
B( 39-C , 53-C ) :   0.8651 B( 40-C , 41-H ) :   0.9579 B( 40-C , 42-H ) :   0.9566 
B( 40-C , 43-C ) :   0.8648 B( 43-C , 44-H ) :   0.9570 B( 43-C , 45-C ) :   0.8585 
B( 43-C , 58-C ) :   0.8633 B( 45-C , 46-H ) :   0.9627 B( 45-C , 47-H ) :   0.9575 
B( 45-C , 48-C ) :   0.8597 B( 48-C , 49-H ) :   0.9549 B( 48-C , 50-C ) :   0.8712 
B( 48-C , 61-C ) :   0.8594 B( 50-C , 51-H ) :   0.9621 B( 50-C , 52-H ) :   0.9597 
B( 53-C , 54-H ) :   0.9555 B( 53-C , 55-H ) :   0.9579 B( 53-C , 56-C ) :   0.8850 
B( 56-C , 57-H ) :   0.9550 B( 56-C , 58-C ) :   0.8581 B( 56-C , 61-C ) :   0.8686 
B( 58-C , 59-H ) :   0.9596 B( 58-C , 60-H ) :   0.9620 B( 61-C , 62-H ) :   0.9574 
B( 61-C , 63-H ) :   0.9618 



--------------------------------------------------------------------------------
                                    TIMINGS
--------------------------------------------------------------------------------


Total execution time                   ...      105.311 sec

Localization of occupied MO's          ...        3.602 sec (  3.4%)
Fock Matrix Formation                  ...       27.908 sec ( 26.5%)
Global overlap, Fock, MKN matrices     ...        0.721 sec (  0.7%)
Differential overlap integrals         ...        1.754 sec (  1.7%)
Organizing maps                        ...        0.059 sec (  0.1%)
RI 3-index integral generations        ...       26.268 sec ( 24.9%)
RI-PNO integral transformation         ...       22.862 sec ( 21.7%)
Initial Guess                          ...        8.037 sec (  7.6%)
DIIS Solver                            ...        0.224 sec (  0.2%)
State Vector Update                    ...        0.013 sec (  0.0%)
Sigma-vector construction              ...       12.162 sec ( 11.5%)
  <D|H|D>(0-ext)                       ...        0.769 sec (  6.3% of sigma)
  <D|H|D>(2-ext Fock)                  ...        0.008 sec (  0.1% of sigma)
  <D|H|D>(2-ext)                       ...        1.142 sec (  9.4% of sigma)
  <D|H|D>(4-ext)                       ...        0.727 sec (  6.0% of sigma)
  <D|H|D>(4-ext-corr)                  ...        3.962 sec ( 32.6% of sigma)
  CCSD doubles correction              ...        0.034 sec (  0.3% of sigma)
  <S|H|S>                              ...        0.869 sec (  7.1% of sigma)
  <S|H|D>(1-ext)                       ...        0.208 sec (  1.7% of sigma)
  <D|H|S>(1-ext)                       ...        0.006 sec (  0.0% of sigma)
  <S|H|D>(3-ext)                       ...        0.037 sec (  0.3% of sigma)
  Fock-dressing                        ...        2.135 sec ( 17.6% of sigma)
  Singles amplitudes                   ...        1.019 sec (  8.4% of sigma)
  (ik|jl)-dressing                     ...        0.552 sec (  4.5% of sigma)
  (ij|ab),(ia|jb)-dressing             ...        0.243 sec (  2.0% of sigma)
  Pair energies                        ...        0.007 sec (  0.1% of sigma)
One-particle density matrix            ...        0.516 sec (  0.5%)


Maximum memory used throughout the entire MDCI-calculation: 1531.9 MB

-------------------------   --------------------
FINAL SINGLE POINT ENERGY     -1085.728278635796
-------------------------   --------------------


                            ***************************************
                            *     ORCA property calculations      *
                            ***************************************

                                    ---------------------
                                    Active property flags
                                    ---------------------
   (+) Dipole Moment


------------------------------------------------------------------------------
                       ORCA ELECTRIC PROPERTIES CALCULATION
------------------------------------------------------------------------------

Dipole Moment Calculation                       ... ON
Quadrupole Moment Calculation                   ... OFF
Polarizability Calculation                      ... OFF
Atomic Dipole Moment Calculation                ... OFF
Atomic Quadrupole Moment Calculation            ... OFF
Atomic Polarizability Calculation               ... OFF
GBWName                                         ... 10.gbw
Electron density                                ... 10.scfp

The origin for moment calculation is the CENTER OF MASS  = (15.837715, 12.436833 39.838320)

-------------
DIPOLE MOMENT
-------------
                                X             Y             Z
Electronic contribution:      1.69616       0.98931      -0.01812
Nuclear contribution   :     -1.65055      -0.95322       0.02981
                        -----------------------------------------
Total Dipole Moment    :      0.04561       0.03609       0.01169
                        -----------------------------------------
Magnitude (a.u.)       :      0.05932
Magnitude (Debye)      :      0.15078



--------------------
Rotational spectrum 
--------------------
 
Rotational constants in cm-1:     0.020063     0.002505     0.002454 
Rotational constants in MHz :   601.472733    75.111862    73.572023 

 Dipole components along the rotational axes: 
x,y,z [a.u.] :     0.009128    -0.057550    -0.011122 
x,y,z [Debye]:     0.023200    -0.146280    -0.028269 

 

                           *** MDCI DENSITY ***

------------------------------------------------------------------------------
                       ORCA ELECTRIC PROPERTIES CALCULATION
------------------------------------------------------------------------------

Dipole Moment Calculation                       ... ON
Quadrupole Moment Calculation                   ... OFF
Polarizability Calculation                      ... OFF
Atomic Dipole Moment Calculation                ... OFF
Atomic Quadrupole Moment Calculation            ... OFF
Atomic Polarizability Calculation               ... OFF
GBWName                                         ... 10.gbw
Electron density                                ... 10.mdcip

The origin for moment calculation is the CENTER OF MASS  = (15.837715, 12.436833 39.838320)

-------------
DIPOLE MOMENT
-------------
                                X             Y             Z
Electronic contribution:      1.68803       0.97956      -0.01530
Nuclear contribution   :     -1.65055      -0.95322       0.02981
                        -----------------------------------------
Total Dipole Moment    :      0.03747       0.02634       0.01451
                        -----------------------------------------
Magnitude (a.u.)       :      0.04805
Magnitude (Debye)      :      0.12213



--------------------
Rotational spectrum 
--------------------
 
Rotational constants in cm-1:     0.020063     0.002505     0.002454 
Rotational constants in MHz :   601.472733    75.111862    73.572023 

 Dipole components along the rotational axes: 
x,y,z [a.u.] :     0.013072    -0.045495    -0.008256 
x,y,z [Debye]:     0.033226    -0.115639    -0.020985 

 

--------------------------------
SUGGESTED CITATIONS FOR THIS RUN
--------------------------------

Below you find a list of papers that are relevant to this ORCA run
We neither can nor want to force you to cite these paper, but we appreciate if you do
You receive ORCA, which is the product of a lot of hard work by many enthusiastic individuals, for free
The only thing we kindly ask in return is that you cite our papers,
We deeply appreciate it, if you show your appreciation for ORCA by not just citing the generic ORCA reference.

Please note that relegating all ORCA citations to the supporting information does *not* help us.
SI sections are not indexed - citations you put there will not count into any citation statistics
But we need these citations in order to attract the funding resources that allow us to do what we are doing

Therefore, if you are a happy ORCA user, please consider citing a few of the papers listed below in the main body of your paper

In addition to the list printed below, the program has created the file 10.bibtex that contains the list in bibtex format
You can import this file easily into all common literature databanks and citation aid programs


List of essential papers. We consider these as the minimum necessary citations

  1. Neese,F.
     Software update: the ORCA program system, version 5.0
     WIRES Comput. Molec. Sci., 2022 12(1)e1606
     doi.org/10.1002/wcms.1606

List of papers to cite with high priority. The work reported in these papers was absolutely
necessary for this run to complete.
Our perspective: the developers of density functionals and basis sets usually get cited in chemistry papers
Good! But without the algorithms to do something with them, the functionals or basis sets would not do anything.
Hence, in our opinion, the algorithm design and method developments papers are equally worthy of getting cited

  1. Neese,F.
     An improvement of the resolution of the identity approximation for the formation of the Coulomb matrix
     J. Comp. Chem., 2003 24(14)1740-1747
     doi.org/10.1002/jcc.10318
  2. Neese,F.; Wennmohs,F.; Hansen,A.; Becker,U.
     Efficient, approximate and parallel Hartree-Fock and hybrid DFT calculations. A 'chain-of-spheres' algorithm for the Hartree-Fock exchange
     Chem. Phys., 2009 356(1-3)98-109
     doi.org/10.1016/j.chemphys.2008.10.036
  3. Neese,F.; Hansen,A.; Liakos,D.G.
     Efficient and accurate approximations to the local coupled cluster singles doubles method using a truncated pair natural orbital basis
     J. Chem. Phys., 2009 131 064103
     doi.org/10.1063/1.3173827
  4. Neese,F.; Wennmohs,F.; Hansen,A.
     Efficient and accurate local approximations to coupled-electron pair approaches: An attempt to revive the pair natural orbital method
     J. Chem. Phys., 2009 130 114108
     doi.org/10.1063/1.3086717
  5. Riplinger,C.; Neese,F.
     An efficient and near linear scaling pair natural orbital based local coupled cluster method
     J. Chem. Phys., 2013 138(3)Art. No. 034106
     doi.org/10.1063/1.4773581
  6. Datta,D.; Kossmann,S.; Neese,F.
     Analytic energy derivatives for the calculation of the first-order molecular properties using the domain-based local pair-natural orbital coupled-cluster theory
     J. Chem. Phys., 2016 145 
     doi.org/10.1063/1.4962369
  7. Riplinger,C.; Pinski,P.; Becker,U.; Valeev,E.F.; Neese,F.
     Sparse maps-A systematic infrastructure for reduced-scaling electronic structure methods. II. Linear scaling domain based pair natural orbital coupled cluster theory
     J. Chem. Phys., 2016 144 
     doi.org/10.1063/1.4939030
  8. Bistoni,G.; Riplinger,C.; Minenkov,Y.; Cavallo,L.; Auer,A.A.; Neese,F.
     Treating Subvalence Correlation Effects in Domain Based Pair Natural Orbital Coupled Cluster Calculations: An Out-of-the-Box Approach
     J. Theo. Comp. Chem., 2017 13 3220-3227
     doi.org/10.1021/acs.jctc.7b00352
  9. Helmich-Paris,B.; de Souza,B.; Neese,F.; Izsk,R.
     An improved chain of spheres for exchange algorithm
     J. Chem. Phys., 2021 155 104109
     doi.org/doi: 10.1063/5.0058766.
 10. Neese,F.
     The SHARK Integral Generation and Digestion System
     J. Comp. Chem., 2022  1-16
     doi.org/10.1002/jcc.26942

List of suggested additional citations. These are papers that are important in the 'surrounding' of 
of this run, or papers that preceded the highly important papers. If you like your results we are grateful for a citation.

  1. Izsak,R.; Neese,F.
     An overlap fitted chain of spheres exchange method
     J. Chem. Phys., 2011 135 144105
     doi.org/10.1063/1.3646921
  2. Izsak,R.; Hansen,A.; Neese,F.
     The resolution of identity and chain of spheres approximations for the LPNO-CCSD singles Fock term
     Molec. Phys., 2012 110 2413-2417
     doi.org/10.1080/00268976.2012.687466
  3. Neese,F.
     The ORCA program system
     WIRES Comput. Molec. Sci., 2012 2(1)73-78
     doi.org/10.1002/wcms.81
  4. Izsak,R.; Neese,F.; Klopper,W.
     Robust fitting techniques in the chain of spheres approximation to the Fock exchange: The role of the complementary space
     J. Chem. Phys., 2013 139 
     doi.org/10.1063/1.4819264
  5. Neese,F.
     Software update: the ORCA program system, version 4.0
     WIRES Comput. Molec. Sci., 2018 8(1)1-6
     doi.org/10.1002/wcms.1327
  6. Neese,F.; Wennmohs,F.; Becker,U.; Riplinger,C.
     The ORCA quantum chemistry program package
     J. Chem. Phys., 2020 152 Art. No. L224108
     doi.org/10.1063/5.0004608

List of optional additional citations

  1. Neese,F.
     Approximate second-order SCF convergence for spin unrestricted wavefunctions
     Chem. Phys. Lett., 2000 325(1-3)93-98
     doi.org/10.1016/s0009-2614(00)00662-x

Timings for individual modules:

Sum of individual times          ...      158.355 sec (=   2.639 min)
GTO integral calculation         ...       21.080 sec (=   0.351 min)  13.3 %
SCF iterations                   ...       26.535 sec (=   0.442 min)  16.8 %
Property integrals               ...        4.465 sec (=   0.074 min)   2.8 %
MDCI module                      ...      106.276 sec (=   1.771 min)  67.1 %
                             ****ORCA TERMINATED NORMALLY****
TOTAL RUN TIME: 0 days 0 hours 2 minutes 39 seconds 260 msec