                                 *****************
                                 * O   R   C   A *
                                 *****************

                                            #,                                       
                                            ###                                      
                                            ####                                     
                                            #####                                    
                                            ######                                   
                                           ########,                                 
                                     ,,################,,,,,                         
                               ,,#################################,,                 
                          ,,##########################################,,             
                       ,#########################################, ''#####,          
                    ,#############################################,,   '####,        
                  ,##################################################,,,,####,       
                ,###########''''           ''''###############################       
              ,#####''   ,,,,##########,,,,          '''####'''          '####       
            ,##' ,,,,###########################,,,                        '##       
           ' ,,###''''                  '''############,,,                           
         ,,##''                                '''############,,,,        ,,,,,,###''
      ,#''                                            '''#######################'''  
     '                                                          ''''####''''         
             ,#######,   #######,   ,#######,      ##                                
            ,#'     '#,  ##    ##  ,#'     '#,    #''#        ######   ,####,        
            ##       ##  ##   ,#'  ##            #'  '#       #        #'  '#        
            ##       ##  #######   ##           ,######,      #####,   #    #        
            '#,     ,#'  ##    ##  '#,     ,#' ,#      #,         ##   #,  ,#        
             '#######'   ##     ##  '#######'  #'      '#     #####' # '####'        



                  #######################################################
                  #                        -***-                        #
                  #          Department of theory and spectroscopy      #
                  #    Directorship and core code : Frank Neese         #
                  #        Max Planck Institute fuer Kohlenforschung    #
                  #                Kaiser Wilhelm Platz 1               #
                  #                 D-45470 Muelheim/Ruhr               #
                  #                      Germany                        #
                  #                                                     #
                  #                  All rights reserved                #
                  #                        -***-                        #
                  #######################################################


                         Program Version 5.0  -  CURRENT   -
                                (GIT: $76ccee9ca$)
                ($2022-06-14 15:14:42 +0200 $)

                  !                     WARNING:                         !
                  !         This is a DEVELOPMENT version                !

                         (BUILD: $Mi 15. Jun 00:07:41 CEST 2022$)


 With contributions from (in alphabetic order):
   Daniel Aravena         : Magnetic Suceptibility
   Michael Atanasov       : Ab Initio Ligand Field Theory (pilot matlab implementation)
   Alexander A. Auer      : GIAO ZORA, VPT2 properties, NMR spectrum
   Ute Becker             : Parallelization
   Giovanni Bistoni       : ED, misc. LED, open-shell LED, HFLD
   Martin Brehm           : Molecular dynamics
   Dmytro Bykov           : SCF Hessian
   Vijay G. Chilkuri      : MRCI spin determinant printing, contributions to CSF-ICE
   Dipayan Datta          : RHF DLPNO-CCSD density
   Achintya Kumar Dutta   : EOM-CC, STEOM-CC
   Dmitry Ganyushin       : Spin-Orbit,Spin-Spin,Magnetic field MRCI
   Miquel Garcia          : C-PCM and meta-GGA Hessian, CC/C-PCM, Gaussian charge scheme
   Yang Guo               : DLPNO-NEVPT2, F12-NEVPT2, CIM, IAO-localization
   Andreas Hansen         : Spin unrestricted coupled pair/coupled cluster methods
   Benjamin Helmich-Paris : MC-RPA, TRAH-SCF, COSX integrals
   Lee Huntington         : MR-EOM, pCC
   Robert Izsak           : Overlap fitted RIJCOSX, COSX-SCS-MP3, EOM
   Marcus Kettner         : VPT2
   Christian Kollmar      : KDIIS, OOCD, Brueckner-CCSD(T), CCSD density, CASPT2, CASPT2-K, improved NEVPT2
   Simone Kossmann        : Meta GGA functionals, TD-DFT gradient, OOMP2, MP2 Hessian
   Martin Krupicka        : Initial AUTO-CI
   Lucas Lang             : DCDCAS
   Marvin Lechner         : AUTO-CI (C++ implementation), FIC-MRCC
   Dagmar Lenk            : GEPOL surface, SMD
   Dimitrios Liakos       : Extrapolation schemes; Compound Job, initial MDCI parallelization
   Dimitrios Manganas     : Further ROCIS development; embedding schemes
   Dimitrios Pantazis     : SARC Basis sets
   Anastasios Papadopoulos: AUTO-CI, single reference methods and gradients
   Taras Petrenko         : DFT Hessian,TD-DFT gradient, ASA, ECA, R-Raman, ABS, FL, XAS/XES, NRVS
   Peter Pinski           : DLPNO-MP2, DLPNO-MP2 Gradient
   Christoph Reimann      : Effective Core Potentials
   Marius Retegan         : Local ZFS, SOC
   Christoph Riplinger    : Optimizer, TS searches, QM/MM, DLPNO-CCSD(T), (RO)-DLPNO pert. Triples
   Tobias Risthaus        : Range-separated hybrids, TD-DFT gradient, RPA, STAB
   Michael Roemelt        : Original ROCIS implementation
   Masaaki Saitow         : Open-shell DLPNO-CCSD energy and density
   Barbara Sandhoefer     : DKH picture change effects
   Avijit Sen             : IP-ROCIS
   Kantharuban Sivalingam : CASSCF convergence, NEVPT2, FIC-MRCI
   Bernardo de Souza      : ESD, SOC TD-DFT
   Georgi Stoychev        : AutoAux, RI-MP2 NMR, DLPNO-MP2 response
   Willem Van den Heuvel  : Paramagnetic NMR
   Boris Wezisla          : Elementary symmetry handling
   Frank Wennmohs         : Technical directorship


 We gratefully acknowledge several colleagues who have allowed us to
 interface, adapt or use parts of their codes:
   Stefan Grimme, W. Hujo, H. Kruse, P. Pracht,  : VdW corrections, initial TS optimization,
                  C. Bannwarth, S. Ehlert          DFT functionals, gCP, sTDA/sTD-DF
   Ed Valeev, F. Pavosevic, A. Kumar             : LibInt (2-el integral package), F12 methods
   Garnet Chan, S. Sharma, J. Yang, R. Olivares  : DMRG
   Ulf Ekstrom                                   : XCFun DFT Library
   Mihaly Kallay                                 : mrcc  (arbitrary order and MRCC methods)
   Jiri Pittner, Ondrej Demel                    : Mk-CCSD
   Frank Weinhold                                : gennbo (NPA and NBO analysis)
   Christopher J. Cramer and Donald G. Truhlar   : smd solvation model
   Lars Goerigk                                  : TD-DFT with DH, B97 family of functionals
   V. Asgeirsson, H. Jonsson                     : NEB implementation
   FAccTs GmbH                                   : IRC, NEB, NEB-TS, DLPNO-Multilevel, CI-OPT
                                                   MM, QMMM, 2- and 3-layer-ONIOM, Crystal-QMMM,
                                                   LR-CPCM, SF, NACMEs, symmetry and pop. for TD-DFT,
                                                   nearIR, NL-DFT gradient (VV10), updates on ESD,
                                                   ML-optimized integration grids
   S Lehtola, MJT Oliveira, MAL Marques          : LibXC Library
   Liviu Ungur et al                             : ANISO software


 Your calculation uses the libint2 library for the computation of 2-el integrals
 For citations please refer to: http://libint.valeyev.net

 Your ORCA version has been built with support for libXC version: 5.2.2
 For citations please refer to: https://tddft.org/programs/libxc/

 This ORCA versions uses:
   CBLAS   interface :  Fast vector & matrix operations
   LAPACKE interface :  Fast linear algebra routines
   SCALAPACK package :  Parallel linear algebra routines
   Shared memory     :  Shared parallel matrices


================================================================================

----- Orbital basis set information -----
Your calculation utilizes the basis: aug-cc-pVQZ 
    H, B-Ne : Obtained from the ccRepo (grant-hill.group.shef.ac.uk/ccrepo) Feb. 2017
              R. A. Kendall, T. H. Dunning, Jr., R. J. Harrison, J. Chem. Phys. 96, 6796 (1992)
         He : Obtained from the ccRepo (grant-hill.group.shef.ac.uk/ccrepo) Feb. 2017
              D. E. Woon, T. H. Dunning, Jr., J. Chem. Phys. 100, 2975 (1994)
  Li-Be, Na : Obtained from the ccRepo (grant-hill.group.shef.ac.uk/ccrepo) Feb. 2017
              B. P. Prascher, D. E. Woon, K. A. Peterson, T. H. Dunning, Jr., A. K. Wilson, Theor. Chem. Acc. 128, 69 (2011)
         Mg : Obtained from the Peterson Research Group Website (tyr0.chem.wsu.edu/~kipeters) Feb. 2017
              B. P. Prascher, D. E. Woon, K. A. Peterson, T. H. Dunning, Jr., A. K. Wilson, Theor. Chem. Acc. 128, 69 (2011)
      Al-Ar : Obtained from the ccRepo (grant-hill.group.shef.ac.uk/ccrepo) Feb. 2017
              D. E. Woon, T. H. Dunning, Jr., J. Chem. Phys. 98, 1358 (1993)
      Sc-Zn : Obtained from the ccRepo (grant-hill.group.shef.ac.uk/ccrepo) Feb. 2017
              N. B. Balabanov, K. A. Peterson, J. Chem. Phys. 123, 064107 (2005)
              N. B. Balabanov, K. A. Peterson, J. Chem. Phys. 125, 074110 (2006)
      Ga-Kr : Obtained from the ccRepo (grant-hill.group.shef.ac.uk/ccrepo) Feb. 2017
              A. K. Wilson, D. E. Woon, K. A. Peterson, T. H. Dunning, Jr., J. Chem. Phys. 110, 7667 (1999)

----- AuxJ basis set information -----
----- AuxC basis set information -----
================================================================================
                                        WARNINGS
                       Please study these warnings very carefully!
================================================================================


WARNING: Post HF methods need fully converged wavefunctions
  ===> : Setting SCFConvForced true
         You can overwrite this default with %scf ConvForced false 


WARNING: MDCI localization with Augmented Hessian Foster-Boys
  ===> : Switching off randomization!

INFO   : the flag for use of the SHARK integral package has been found!

================================================================================
                                       INPUT FILE
================================================================================
NAME = W.inp
|  1> ! DLPNO-CCSD(T1) aug-cc-pVQZ DEFGRID3 RIJCOSX def2/J aug-cc-pV5Z/C verytightscf TightPNO LED
|  2> 
|  3> %pal nprocs 16 end
|  4> %maxcore 4000
|  5> %scf maxiter 999 end
|  6> %basis auxj "autoaux" auxc "autoaux" autoauxlmax true end
|  7> %mdci TCutPNO 1e-6 printlevel 3 end
|  8> 
|  9> *xyz 0 1
| 10> O(1)    -1.753042425     0.416462959     0.356105280
| 11> H(1)    -1.120933301    -0.183098298     0.812596940
| 12> H(1)    -2.593310567    -0.048459739     0.359102074
| 13> O(2)     2.482542995    -1.248988714     0.449488905
| 14> H(2)     2.616828786    -1.798226083    -0.326968465
| 15> H(2)     2.828107886    -0.362220961     0.204648083
| 16> O(3)     0.012631031    -1.241255898     1.573836894
| 17> H(3)     0.908618001    -1.252949881     1.168524322
| 18> H(3)     0.168950409    -1.135399007     2.515952529
| 19> O(4)     3.364853284     1.252522284    -0.119963272
| 20> H(4)     2.731853532     1.891821037    -0.517486897
| 21> H(4)     4.212012919     1.443946099    -0.529713339
| 22> O(5)    -0.845377446     1.902266646    -1.724481185
| 23> H(5)    -1.198971324     1.335278306    -1.003913817
| 24> H(5)    -0.953209570     1.388839038    -2.529056860
| 25> O(6)     1.597560181     2.978636709    -1.236245995
| 26> H(6)     1.417961949     3.808511891    -0.786488687
| 27> H(6)     0.711446199     2.593888593    -1.420550970
| 28> *
| 29> 
| 30>                          ****END OF INPUT****
================================================================================

                       ****************************
                       * Single Point Calculation *
                       ****************************

---------------------------------
CARTESIAN COORDINATES (ANGSTROEM)
---------------------------------
  O     -1.753042    0.416463    0.356105
  H     -1.120933   -0.183098    0.812597
  H     -2.593311   -0.048460    0.359102
  O      2.482543   -1.248989    0.449489
  H      2.616829   -1.798226   -0.326968
  H      2.828108   -0.362221    0.204648
  O      0.012631   -1.241256    1.573837
  H      0.908618   -1.252950    1.168524
  H      0.168950   -1.135399    2.515953
  O      3.364853    1.252522   -0.119963
  H      2.731854    1.891821   -0.517487
  H      4.212013    1.443946   -0.529713
  O     -0.845377    1.902267   -1.724481
  H     -1.198971    1.335278   -1.003914
  H     -0.953210    1.388839   -2.529057
  O      1.597560    2.978637   -1.236246
  H      1.417962    3.808512   -0.786489
  H      0.711446    2.593889   -1.420551

----------------------------
CARTESIAN COORDINATES (A.U.)
----------------------------
  NO LB      ZA    FRAG     MASS         X           Y           Z
   0 O     8.0000    1    15.999   -3.312770    0.787001    0.672941
   1 H     1.0000    1     1.008   -2.118257   -0.346006    1.535586
   2 H     1.0000    1     1.008   -4.900647   -0.091576    0.678605
   3 O     8.0000    2    15.999    4.691326   -2.360247    0.849411
   4 H     1.0000    2     1.008    4.945090   -3.398155   -0.617881
   5 H     1.0000    2     1.008    5.344349   -0.684498    0.386729
   6 O     8.0000    3    15.999    0.023869   -2.345634    2.974121
   7 H     1.0000    3     1.008    1.717039   -2.367732    2.208191
   8 H     1.0000    3     1.008    0.319270   -2.145593    4.754461
   9 O     8.0000    4    15.999    6.358651    2.366924   -0.226698
  10 H     1.0000    4     1.008    5.162455    3.575024   -0.977909
  11 H     1.0000    4     1.008    7.959551    2.728663   -1.001013
  12 O     8.0000    5    15.999   -1.597532    3.594763   -3.258797
  13 H     1.0000    5     1.008   -2.265727    2.523310   -1.897122
  14 H     1.0000    5     1.008   -1.801305    2.624525   -4.779225
  15 O     8.0000    6    15.999    3.018951    5.628808   -2.336166
  16 H     1.0000    6     1.008    2.679560    7.197044   -1.486248
  17 H     1.0000    6     1.008    1.344438    4.901739   -2.684452

----------------------------------------------
CARTESIAN COORDINATES OF FRAGMENTS (ANGSTROEM)
----------------------------------------------

 FRAGMENT 1 
  O    -1.753042    0.416463    0.356105
  H    -1.120933   -0.183098    0.812597
  H    -2.593311   -0.048460    0.359102

 FRAGMENT 2 
  O     2.482543   -1.248989    0.449489
  H     2.616829   -1.798226   -0.326968
  H     2.828108   -0.362221    0.204648

 FRAGMENT 3 
  O     0.012631   -1.241256    1.573837
  H     0.908618   -1.252950    1.168524
  H     0.168950   -1.135399    2.515953

 FRAGMENT 4 
  O     3.364853    1.252522   -0.119963
  H     2.731854    1.891821   -0.517487
  H     4.212013    1.443946   -0.529713

 FRAGMENT 5 
  O    -0.845377    1.902267   -1.724481
  H    -1.198971    1.335278   -1.003914
  H    -0.953210    1.388839   -2.529057

 FRAGMENT 6 
  O     1.597560    2.978637   -1.236246
  H     1.417962    3.808512   -0.786489
  H     0.711446    2.593889   -1.420551

--------------------------------
INTERNAL COORDINATES (ANGSTROEM)
--------------------------------
 O      0   0   0     0.000000000000     0.00000000     0.00000000
 H      1   0   0     0.983575254462     0.00000000     0.00000000
 H      1   2   0     0.960319033629   105.41217712     0.00000000
 O      2   1   3     3.775316045027   137.80610674   140.81571119
 H      4   2   1     0.960510493747   111.87821583   289.96800700
 H      4   2   1     0.982710114820    96.01764691    39.23297988
 O      2   1   3     1.727469788097   178.43945154   113.75138538
 H      7   2   1     0.983467173153   115.05592315    27.55539319
 H      7   2   1     0.960845096268   118.12194715   152.42795409
 O      6   4   2     1.732300176454   175.39802061    47.50258676
 H     10   6   4     0.983573390273   118.82882445   286.30484109
 H     10   6   4     0.960321634417   122.62201669   150.87199364
 O      1   2   3     2.712988822083   118.34358293   215.99746256
 H     13   1   2     0.982711422586     2.93795740   107.23169663
 H     13   1   2     0.960509079824   108.18525969    89.10302709
 O     11  10   6     1.727542865455   178.43457674   331.71291368
 H     16  11  10     0.960848572220   118.12094875   152.29359891
 H     16  11  10     0.983461959443   115.05273456    27.42396104

---------------------------
INTERNAL COORDINATES (A.U.)
---------------------------
 O      0   0   0     0.000000000000     0.00000000     0.00000000
 H      1   0   0     1.858687863034     0.00000000     0.00000000
 H      1   2   0     1.814739974751   105.41217712     0.00000000
 O      2   1   3     7.134313394099   137.80610674   140.81571119
 H      4   2   1     1.815101781939   111.87821583   289.96800700
 H      4   2   1     1.857052986045    96.01764691    39.23297988
 O      2   1   3     3.264444804125   178.43945154   113.75138538
 H      7   2   1     1.858483618961   115.05592315    27.55539319
 H      7   2   1     1.815734089067   118.12194715   152.42795409
 O      6   4   2     3.273572915241   175.39802061    47.50258676
 H     10   6   4     1.858684340228   118.82882445   286.30484109
 H     10   6   4     1.814744889527   122.62201669   150.87199364
 O      1   2   3     5.126805878126   118.34358293   215.99746256
 H     13   1   2     1.857055457364     2.93795740   107.23169663
 H     13   1   2     1.815099110012   108.18525969    89.10302709
 O     11  10   6     3.264582900320   178.43457674   331.71291368
 H     16  11  10     1.815740657664   118.12094875   152.29359891
 H     16  11  10     1.858473766477   115.05273456    27.42396104

---------------------
BASIS SET INFORMATION
---------------------
There are 2 groups of distinct atoms

 Group   1 Type O   : 22s7p4d3f2g contracted to 6s5p4d3f2g pattern {991111/31111/1111/111/11}
 Group   2 Type H   : 7s4p3d2f contracted to 5s4p3d2f pattern {31111/1111/111/11}

Atom   0O    basis set group =>   1
Atom   1H    basis set group =>   2
Atom   2H    basis set group =>   2
Atom   3O    basis set group =>   1
Atom   4H    basis set group =>   2
Atom   5H    basis set group =>   2
Atom   6O    basis set group =>   1
Atom   7H    basis set group =>   2
Atom   8H    basis set group =>   2
Atom   9O    basis set group =>   1
Atom  10H    basis set group =>   2
Atom  11H    basis set group =>   2
Atom  12O    basis set group =>   1
Atom  13H    basis set group =>   2
Atom  14H    basis set group =>   2
Atom  15O    basis set group =>   1
Atom  16H    basis set group =>   2
Atom  17H    basis set group =>   2
---------------------------------
AUXILIARY/J BASIS SET INFORMATION
---------------------------------
There are 2 groups of distinct atoms

 Group   1 Type O   : 16s14p13d7f7g5h3i3j contracted to 16s14p13d7f7g5h3i3j pattern {1111111111111111/11111111111111/1111111111111/1111111/1111111/11111/111/111}
 Group   2 Type H   : 15s7p6d5f5g4h3i contracted to 15s7p6d5f5g4h3i pattern {111111111111111/1111111/111111/11111/11111/1111/111}

Atom   0O    basis set group =>   1
Atom   1H    basis set group =>   2
Atom   2H    basis set group =>   2
Atom   3O    basis set group =>   1
Atom   4H    basis set group =>   2
Atom   5H    basis set group =>   2
Atom   6O    basis set group =>   1
Atom   7H    basis set group =>   2
Atom   8H    basis set group =>   2
Atom   9O    basis set group =>   1
Atom  10H    basis set group =>   2
Atom  11H    basis set group =>   2
Atom  12O    basis set group =>   1
Atom  13H    basis set group =>   2
Atom  14H    basis set group =>   2
Atom  15O    basis set group =>   1
Atom  16H    basis set group =>   2
Atom  17H    basis set group =>   2
---------------------------------
AUXILIARY/C BASIS SET INFORMATION
---------------------------------
There are 2 groups of distinct atoms

 Group   1 Type O   : 16s14p13d7f7g5h3i3j contracted to 16s14p13d7f7g5h3i3j pattern {1111111111111111/11111111111111/1111111111111/1111111/1111111/11111/111/111}
 Group   2 Type H   : 15s7p6d5f5g4h3i contracted to 15s7p6d5f5g4h3i pattern {111111111111111/1111111/111111/11111/11111/1111/111}

Atom   0O    basis set group =>   1
Atom   1H    basis set group =>   2
Atom   2H    basis set group =>   2
Atom   3O    basis set group =>   1
Atom   4H    basis set group =>   2
Atom   5H    basis set group =>   2
Atom   6O    basis set group =>   1
Atom   7H    basis set group =>   2
Atom   8H    basis set group =>   2
Atom   9O    basis set group =>   1
Atom  10H    basis set group =>   2
Atom  11H    basis set group =>   2
Atom  12O    basis set group =>   1
Atom  13H    basis set group =>   2
Atom  14H    basis set group =>   2
Atom  15O    basis set group =>   1
Atom  16H    basis set group =>   2
Atom  17H    basis set group =>   2

Checking for AutoStart:
The File: W.gbw exists
Trying to determine its content:
     ... Fine, the file contains calculation information
     ... Fine, the calculation information was read
     ... Fine, the file contains a basis set
     ... Fine, the basis set was read
     ... Fine, the file contains a geometry
     ... Fine, the geometry was read
     ... Fine, the file contains a set of orbitals
     ... Fine, the orbitals can be read
     => possible old guess file was deleted
     => GBW file was renamed to GES file
     => GES file is set as startup file
     => Guess is set to MORead
     ... now leaving AutoStart



           ************************************************************
           *        Program running with 16 parallel MPI-processes    *
           *              working on a common directory               *
           ************************************************************
------------------------------------------------------------------------------
                           ORCA GTO INTEGRAL CALCULATION
                           -- RI-GTO INTEGRALS CHOSEN --
------------------------------------------------------------------------------
------------------------------------------------------------------------------
                   ___                                                        
                  /   \      - P O W E R E D   B Y -                         
                 /     \                                                     
                 |  |  |   _    _      __       _____    __    __             
                 |  |  |  | |  | |    /  \     |  _  \  |  |  /  |          
                  \  \/   | |  | |   /    \    | | | |  |  | /  /          
                 / \  \   | |__| |  /  /\  \   | |_| |  |  |/  /          
                |  |  |   |  __  | /  /__\  \  |    /   |      \           
                |  |  |   | |  | | |   __   |  |    \   |  |\   \          
                \     /   | |  | | |  |  |  |  | |\  \  |  | \   \       
                 \___/    |_|  |_| |__|  |__|  |_| \__\ |__|  \__/        
                                                                              
                      - O R C A' S   B I G   F R I E N D -                    
                                      &                                       
                       - I N T E G R A L  F E E D E R -                       
                                                                              
 v1 FN, 2020, v2 2021                                                         
------------------------------------------------------------------------------


Reading SHARK input file W.SHARKINP.tmp ... ok
Calculating pre-screening integrals         ... done (  0.1 sec) Dimension = 330
Calculating pre-screening integrals (ORCA)  ... done (  0.3 sec) Dimension = 288
Organizing shell pair data                  ... done (  0.9 sec)
Shell pair information
Total number of shell pairs                 ...     54615
Shell pairs after pre-screening             ...     42990
Total number of primitive shell pairs       ...     67215
Primitive shell pairs kept                  ...     49251
          la=0 lb=0:   6746 shell pairs
          la=1 lb=0:   8514 shell pairs
          la=1 lb=1:   2709 shell pairs
          la=2 lb=0:   6380 shell pairs
          la=2 lb=1:   4022 shell pairs
          la=2 lb=2:   1553 shell pairs
          la=3 lb=0:   4413 shell pairs
          la=3 lb=1:   2815 shell pairs
          la=3 lb=2:   2143 shell pairs
          la=3 lb=3:    781 shell pairs
          la=4 lb=0:   1087 shell pairs
          la=4 lb=1:    768 shell pairs
          la=4 lb=2:    580 shell pairs
          la=4 lb=3:    416 shell pairs
          la=4 lb=4:     63 shell pairs

Calculating one electron integrals          ... done (  0.1 sec)
Calculating RI/J V-Matrix + Cholesky decomp.... done ( 13.4 sec)
Calculating RI/C V-Matrix + Cholesky decomp.... done ( 13.3 sec)
Calculating Nuclear repulsion               ... done (  0.0 sec) ENN=    271.827576487821 Eh

SHARK setup successfully completed in  29.0 seconds

Maximum memory used throughout the entire GTOINT-calculation: 668.7 MB


           ************************************************************
           *        Program running with 16 parallel MPI-processes    *
           *              working on a common directory               *
           ************************************************************
-------------------------------------------------------------------------------
                                 ORCA SCF
-------------------------------------------------------------------------------

------------
SCF SETTINGS
------------
Hamiltonian:
 Ab initio Hamiltonian  Method          .... Hartree-Fock(GTOs)
 RI-approximation to the Coulomb term is turned on
   Number of AuxJ basis functions       .... 4992
   RIJ-COSX (HFX calculated with COS-X)).... on


General Settings:
 Integral files         IntName         .... W
 Hartree-Fock type      HFTyp           .... RHF
 Total Charge           Charge          ....    0
 Multiplicity           Mult            ....    1
 Number of Electrons    NEL             ....   60
 Basis Dimension        Dim             .... 1032
 Nuclear Repulsion      ENuc            ....    271.8275764878 Eh

Convergence Acceleration:
 DIIS                   CNVDIIS         .... on
   Start iteration      DIISMaxIt       ....    12
   Startup error        DIISStart       ....  0.200000
   # of expansion vecs  DIISMaxEq       ....     5
   Bias factor          DIISBfac        ....   1.050
   Max. coefficient     DIISMaxC        ....  10.000
 Trust-Rad. Augm. Hess. CNVTRAH         .... auto
   Auto Start mean grad. ratio tolernc. ....  1.125000
   Auto Start start iteration           ....     1
   Auto Start num. interpolation iter.  ....    10
   Max. Number of Micro iterations      ....    24
   Max. Number of Macro iterations      .... Maxiter - #DIIS iter
   Max. Number of back steps            ....     5
   Number of Davidson start vectors     ....     2
   Converg. threshold I  (grad. norm)   ....   2.000e-06
   Converg. threshold II (energy diff.) ....   1.000e-09
   Grad. Scal. Fac. for Micro threshold ....   0.100
   Minimum threshold for Micro iter.    ....   1.000e-02
   NR start threshold (gradient norm)   ....   1.000e-04
   Initial trust radius                 ....   0.400
   Minimum AH scaling param. (alpha)    ....   1.000
   Maximum AH scaling param. (alpha)    .... 1000.000
   Inactive MOs                         .... canonicalized
   Orbital update algorithm             .... Taylor
   White noise on init. David. guess    .... on
   Maximum white noise                  ....   0.010
   Quad. conv. algorithm                .... NR
   Preconditioner                       .... approx. diagonal
 SOSCF                  CNVSOSCF        .... on
   Start iteration      SOSCFMaxIt      ....   150
   Startup grad/error   SOSCFStart      ....  0.003300
 Level Shifting         CNVShift        .... on
   Level shift para.    LevelShift      ....    0.2500
   Turn off err/grad.   ShiftErr        ....    0.0010
 Zerner damping         CNVZerner       .... off
 Static damping         CNVDamp         .... on
   Fraction old density DampFac         ....    0.7000
   Max. Damping (<1)    DampMax         ....    0.9800
   Min. Damping (>=0)   DampMin         ....    0.0000
   Turn off err/grad.   DampErr         ....    0.1000

SCF Procedure:
 Maximum # iterations   MaxIter         ....   999
 SCF integral mode      SCFMode         .... Direct
   Integral package                     .... SHARK and LIBINT hybrid scheme
 Reset frequency        DirectResetFreq ....    20
 Integral Threshold     Thresh          ....  1.000e-12 Eh
 Primitive CutOff       TCut            ....  1.000e-14 Eh

Convergence Tolerance:
 Convergence Check Mode ConvCheckMode   .... Total+1el-Energy
 Convergence forced     ConvForced      .... 1
 Energy Change          TolE            ....  1.000e-09 Eh
 1-El. energy change                    ....  1.000e-06 Eh
 Orbital Gradient       TolG            ....  2.000e-06
 Orbital Rotation angle TolX            ....  2.000e-06
 DIIS Error             TolErr          ....  1.000e-08


Diagonalization of the overlap matrix:
Smallest eigenvalue                        ... 1.498e-05
Time for diagonalization                   ...    0.141 sec
Threshold for overlap eigenvalues          ... 1.000e-08
Number of eigenvalues below threshold      ... 0
Time for construction of square roots      ...    0.157 sec
Total time needed                          ...    0.306 sec

---------------------
INITIAL GUESS: MOREAD
---------------------
Guess MOs are being read from file: W.ges
Input Geometry matches current geometry (good)
Atom 0: N(Shells)= 20 and 14 - projection required
Input basis set needs projection
NBasis(read)= 552
NBasis(calc)= 1032
Basis set overlap was calculated
Using GuessMode=FMatrix for the initial guess
C*T matrix was formed
Effective Fockian was calculated
Effective Fockian was diagonalized
Initial density was built
                      ------------------
                      INITIAL GUESS DONE (   0.6 sec)
                      ------------------
--------------------
COSX GRID GENERATION
--------------------

GRIDX 1
-------
General Integration Accuracy     IntAcc      ... 4.020
Radial Grid Type                 RadialGrid  ... OptM3 with GC (2021)
Angular Grid (max. ang.)         AngularGrid ... 2 (Lebedev-110)
Angular grid pruning method      GridPruning ... 4 (adaptive)
Weight generation scheme         WeightScheme... Becke
Basis function cutoff            BFCut       ... 1.0000e-12
Integration weight cutoff        WCut        ... 1.0000e-14
Angular grids for H and He will be reduced by one unit
Partially contracted basis set               ... on
Rotationally invariant grid construction     ... off

Total number of grid points                  ...    23626
Total number of batches                      ...      379
Average number of points per batch           ...       62
Average number of grid points per atom       ...     1313
UseSFitting                                  ... on

GRIDX 2
-------
General Integration Accuracy     IntAcc      ... 4.338
Radial Grid Type                 RadialGrid  ... OptM3 with GC (2021)
Angular Grid (max. ang.)         AngularGrid ... 3 (Lebedev-194)
Angular grid pruning method      GridPruning ... 4 (adaptive)
Weight generation scheme         WeightScheme... Becke
Basis function cutoff            BFCut       ... 1.0000e-12
Integration weight cutoff        WCut        ... 1.0000e-14
Angular grids for H and He will be reduced by one unit
Partially contracted basis set               ... on
Rotationally invariant grid construction     ... off

Total number of grid points                  ...    53233
Total number of batches                      ...      841
Average number of points per batch           ...       63
Average number of grid points per atom       ...     2957
UseSFitting                                  ... on

GRIDX 3
-------
General Integration Accuracy     IntAcc      ... 4.871
Radial Grid Type                 RadialGrid  ... OptM3 with GC (2021)
Angular Grid (max. ang.)         AngularGrid ... 4 (Lebedev-302)
Angular grid pruning method      GridPruning ... 4 (adaptive)
Weight generation scheme         WeightScheme... Becke
Basis function cutoff            BFCut       ... 1.0000e-12
Integration weight cutoff        WCut        ... 1.0000e-14
Angular grids for H and He will be reduced by one unit
Partially contracted basis set               ... on
Rotationally invariant grid construction     ... off

Total number of grid points                  ...   103373
Total number of batches                      ...     1624
Average number of points per batch           ...       63
Average number of grid points per atom       ...     5743
UseSFitting                                  ... on

Time for X-Grid setup             =    2.280 sec

 re-compute Schwartz prescreening matrix in partially contracted basis (1) ...done (   0.195 sec)
--------------
SCF ITERATIONS
--------------
ITER       Energy         Delta-E        Max-DP      RMS-DP      [F,P]     Damp
               ***  Starting incremental Fock matrix formation  ***
  0   -456.4341211288   0.000000000000 0.03242818  0.00031420  0.0272657 0.7000
                      *** Initiating the SOSCF procedure ***
                      *** Re-Reading the Fockian *** 
                      *** Removing any level shift *** 
ITER       Energy         Delta-E        Max-DP      RMS-DP   
  1   -456.4356495129  -0.001528384064 0.08553075  0.00087029
               *** Restarting incremental Fock matrix formation ***
  2   -456.4393380956  -0.003688582676 0.02388973  0.00018667
  3   -456.4393586579  -0.000020562373 0.00330990  0.00002442
  4   -456.4393579441   0.000000713877 0.00089070  0.00000569
  5   -456.4393586740  -0.000000729901 0.00010199  0.00000096
  6   -456.4393587265  -0.000000052490 0.00003129  0.00000024
  7   -456.4393587299  -0.000000003437 0.00000643  0.00000005
  8   -456.4393587285   0.000000001419 0.00000235  0.00000002
  9   -456.4393587264   0.000000002044 0.00000072  0.00000001
 10   -456.4393587228   0.000000003601 0.00000068  0.00000000
 11   -456.4393587205   0.000000002299 0.00000055  0.00000001
 12   -456.4393587190   0.000000001548 0.00000068  0.00000001
 13   -456.4393587177   0.000000001290 0.00000027  0.00000000
 14   -456.4393587170   0.000000000705 0.00000452  0.00000006
 15   -456.4393587160   0.000000001036 0.00000431  0.00000005
                 **** Energy Check signals convergence ****
              ***Rediagonalizing the Fockian in SOSCF/NRSCF***

               *****************************************************
               *                     SUCCESS                       *
               *           SCF CONVERGED AFTER  16 CYCLES          *
               *****************************************************

Old exchange energy                            =    -53.730143638 Eh
New exchange energy                            =    -53.730237846 Eh
Exchange energy change after final integration =     -0.000094208 Eh
Total energy after final integration           =   -456.439452924 Eh
Final COS-X integration done in                =    25.730 sec

----------------
TOTAL SCF ENERGY
----------------

Total Energy       :         -456.43945292 Eh          -12420.34895 eV

Components:
Nuclear Repulsion  :          271.82757649 Eh            7396.80440 eV
Electronic Energy  :         -728.26702941 Eh          -19817.15335 eV
One Electron Energy:        -1172.26204493 Eh          -31898.87195 eV
Two Electron Energy:          443.99501551 Eh           12081.71859 eV
Max COSX asymmetry :            0.00000085 Eh               0.00002 eV

Virial components:
Potential Energy   :         -912.41979136 Eh          -24828.20476 eV
Kinetic Energy     :          455.98033843 Eh           12407.85581 eV
Virial Ratio       :            2.00100687


---------------
SCF CONVERGENCE
---------------

  Last Energy change         ...   -7.7762e-10  Tolerance :   1.0000e-09
  Last MAX-Density change    ...    3.3307e-15  Tolerance :   1.0000e-08
  Last RMS-Density change    ...    6.4758e-18  Tolerance :   1.0000e-09

             **** THE GBW FILE WAS UPDATED (W.gbw) ****
             **** DENSITY W.scfp WAS UPDATED ****
             **** ENERGY FILE WAS UPDATED (W.en.tmp) ****
             **** THE GBW FILE WAS UPDATED (W.gbw) ****
             **** DENSITY W.scfp WAS UPDATED ****
             **** ENERGY FILE WAS UPDATED (W.en.tmp) ****
----------------
ORBITAL ENERGIES
----------------

  NO   OCC          E(Eh)            E(eV) 
   0   2.0000     -20.551808      -559.2431 
   1   2.0000     -20.551725      -559.2409 
   2   2.0000     -20.551070      -559.2230 
   3   2.0000     -20.550957      -559.2200 
   4   2.0000     -20.550597      -559.2102 
   5   2.0000     -20.550523      -559.2082 
   6   2.0000      -1.356615       -36.9154 
   7   2.0000      -1.349155       -36.7124 
   8   2.0000      -1.348618       -36.6978 
   9   2.0000      -1.333259       -36.2798 
  10   2.0000      -1.332247       -36.2523 
  11   2.0000      -1.324254       -36.0348 
  12   2.0000      -0.717293       -19.5185 
  13   2.0000      -0.717014       -19.5109 
  14   2.0000      -0.715614       -19.4729 
  15   2.0000      -0.715384       -19.4666 
  16   2.0000      -0.713005       -19.4019 
  17   2.0000      -0.712663       -19.3926 
  18   2.0000      -0.622847       -16.9485 
  19   2.0000      -0.605178       -16.4677 
  20   2.0000      -0.601189       -16.3592 
  21   2.0000      -0.562068       -15.2947 
  22   2.0000      -0.557838       -15.1795 
  23   2.0000      -0.539941       -14.6925 
  24   2.0000      -0.505162       -13.7462 
  25   2.0000      -0.504245       -13.7212 
  26   2.0000      -0.501041       -13.6340 
  27   2.0000      -0.499844       -13.6014 
  28   2.0000      -0.498661       -13.5693 
  29   2.0000      -0.496098       -13.4995 
  30   0.0000       0.022671         0.6169 
  31   0.0000       0.032974         0.8973 
  32   0.0000       0.037804         1.0287 
  33   0.0000       0.038323         1.0428 
  34   0.0000       0.047898         1.3034 
  35   0.0000       0.052250         1.4218 
  36   0.0000       0.064051         1.7429 
  37   0.0000       0.066499         1.8095 
  38   0.0000       0.070269         1.9121 
  39   0.0000       0.079401         2.1606 
  40   0.0000       0.082963         2.2575 
  41   0.0000       0.084695         2.3047 
  42   0.0000       0.120862         3.2888 
  43   0.0000       0.132418         3.6033 
  44   0.0000       0.135524         3.6878 
  45   0.0000       0.138594         3.7713 
  46   0.0000       0.140158         3.8139 
  47   0.0000       0.146342         3.9822 
  48   0.0000       0.148086         4.0296 
  49   0.0000       0.148511         4.0412 
  50   0.0000       0.153904         4.1879 
  51   0.0000       0.157587         4.2882 
  52   0.0000       0.159337         4.3358 
  53   0.0000       0.171817         4.6754 
  54   0.0000       0.183092         4.9822 
  55   0.0000       0.190203         5.1757 
  56   0.0000       0.193338         5.2610 
  57   0.0000       0.195902         5.3308 
  58   0.0000       0.202892         5.5210 
  59   0.0000       0.203928         5.5492 
  60   0.0000       0.206935         5.6310 
  61   0.0000       0.209695         5.7061 
  62   0.0000       0.210283         5.7221 
  63   0.0000       0.213483         5.8092 
  64   0.0000       0.229646         6.2490 
  65   0.0000       0.233301         6.3485 
  66   0.0000       0.237384         6.4595 
  67   0.0000       0.246676         6.7124 
  68   0.0000       0.252894         6.8816 
  69   0.0000       0.254707         6.9309 
  70   0.0000       0.267149         7.2695 
  71   0.0000       0.276559         7.5256 
  72   0.0000       0.292560         7.9610 
  73   0.0000       0.299475         8.1491 
  74   0.0000       0.303047         8.2463 
  75   0.0000       0.305120         8.3027 
  76   0.0000       0.317427         8.6376 
  77   0.0000       0.318781         8.6745 
  78   0.0000       0.323153         8.7935 
  79   0.0000       0.327282         8.9058 
  80   0.0000       0.335036         9.1168 
  81   0.0000       0.340601         9.2682 
  82   0.0000       0.346057         9.4167 
  83   0.0000       0.350930         9.5493 
  84   0.0000       0.352750         9.5988 
  85   0.0000       0.354438         9.6447 
  86   0.0000       0.355126         9.6635 
  87   0.0000       0.359062         9.7706 
  88   0.0000       0.363049         9.8791 
  89   0.0000       0.373505        10.1636 
  90   0.0000       0.373804        10.1717 
  91   0.0000       0.380914        10.3652 
  92   0.0000       0.381832        10.3902 
  93   0.0000       0.390095        10.6150 
  94   0.0000       0.390531        10.6269 
  95   0.0000       0.401950        10.9376 
  96   0.0000       0.408023        11.1029 
  97   0.0000       0.417233        11.3535 
  98   0.0000       0.419743        11.4218 
  99   0.0000       0.420059        11.4304 
 100   0.0000       0.424387        11.5482 
 101   0.0000       0.431951        11.7540 
 102   0.0000       0.435330        11.8459 
 103   0.0000       0.441662        12.0182 
 104   0.0000       0.445792        12.1306 
 105   0.0000       0.446829        12.1588 
 106   0.0000       0.464722        12.6457 
 107   0.0000       0.469747        12.7825 
 108   0.0000       0.478437        13.0189 
 109   0.0000       0.487907        13.2766 
 110   0.0000       0.490343        13.3429 
 111   0.0000       0.503983        13.7141 
 112   0.0000       0.506830        13.7915 
 113   0.0000       0.509886        13.8747 
 114   0.0000       0.519931        14.1480 
 115   0.0000       0.535774        14.5792 
 116   0.0000       0.542137        14.7523 
 117   0.0000       0.544134        14.8067 
 118   0.0000       0.555927        15.1275 
 119   0.0000       0.570926        15.5357 
 120   0.0000       0.573570        15.6076 
 121   0.0000       0.578335        15.7373 
 122   0.0000       0.588163        16.0047 
 123   0.0000       0.591049        16.0833 
 124   0.0000       0.604911        16.4605 
 125   0.0000       0.609223        16.5778 
 126   0.0000       0.617144        16.7933 
 127   0.0000       0.620322        16.8798 
 128   0.0000       0.624236        16.9863 
 129   0.0000       0.632601        17.2140 
 130   0.0000       0.645931        17.5767 
 131   0.0000       0.647004        17.6059 
 132   0.0000       0.655431        17.8352 
 133   0.0000       0.663937        18.0666 
 134   0.0000       0.666204        18.1283 
 135   0.0000       0.672551        18.3010 
 136   0.0000       0.677682        18.4407 
 137   0.0000       0.680901        18.5283 
 138   0.0000       0.687202        18.6997 
 139   0.0000       0.694419        18.8961 
 140   0.0000       0.695332        18.9209 
 141   0.0000       0.697213        18.9721 
 142   0.0000       0.705772        19.2050 
 143   0.0000       0.706314        19.2198 
 144   0.0000       0.707634        19.2557 
 145   0.0000       0.711813        19.3694 
 146   0.0000       0.719269        19.5723 
 147   0.0000       0.735104        20.0032 
 148   0.0000       0.737777        20.0759 
 149   0.0000       0.741636        20.1809 
 150   0.0000       0.747052        20.3283 
 151   0.0000       0.757164        20.6035 
 152   0.0000       0.759569        20.6689 
 153   0.0000       0.767602        20.8875 
 154   0.0000       0.774989        21.0885 
 155   0.0000       0.776098        21.1187 
 156   0.0000       0.777583        21.1591 
 157   0.0000       0.789955        21.4958 
 158   0.0000       0.790861        21.5204 
 159   0.0000       0.797169        21.6921 
 160   0.0000       0.797772        21.7085 
 161   0.0000       0.802496        21.8370 
 162   0.0000       0.807192        21.9648 
 163   0.0000       0.807959        21.9857 
 164   0.0000       0.809913        22.0389 
 165   0.0000       0.811347        22.0779 
 166   0.0000       0.816990        22.2314 
 167   0.0000       0.818603        22.2753 
 168   0.0000       0.823102        22.3977 
 169   0.0000       0.827577        22.5195 
 170   0.0000       0.828701        22.5501 
 171   0.0000       0.832262        22.6470 
 172   0.0000       0.846180        23.0257 
 173   0.0000       0.853168        23.2159 
 174   0.0000       0.863207        23.4891 
 175   0.0000       0.865571        23.5534 
 176   0.0000       0.866545        23.5799 
 177   0.0000       0.880629        23.9631 
 178   0.0000       0.888794        24.1853 
 179   0.0000       0.899687        24.4817 
 180   0.0000       0.910373        24.7725 
 181   0.0000       0.914543        24.8860 
 182   0.0000       0.914713        24.8906 
 183   0.0000       0.920945        25.0602 
 184   0.0000       0.921641        25.0791 
 185   0.0000       0.942535        25.6477 
 186   0.0000       0.942615        25.6499 
 187   0.0000       0.947721        25.7888 
 188   0.0000       0.959623        26.1127 
 189   0.0000       0.965897        26.2834 
 190   0.0000       0.966052        26.2876 
 191   0.0000       0.976902        26.5829 
 192   0.0000       0.988558        26.9000 
 193   0.0000       0.990797        26.9610 
 194   0.0000       0.995126        27.0787 
 195   0.0000       1.002927        27.2910 
 196   0.0000       1.005965        27.3737 
 197   0.0000       1.013618        27.5819 
 198   0.0000       1.015402        27.6305 
 199   0.0000       1.022781        27.8313 
 200   0.0000       1.037472        28.2311 
 201   0.0000       1.041059        28.3287 
 202   0.0000       1.046810        28.4851 
 203   0.0000       1.058102        28.7924 
 204   0.0000       1.061280        28.8789 
 205   0.0000       1.068170        29.0664 
 206   0.0000       1.093089        29.7445 
 207   0.0000       1.093398        29.7529 
 208   0.0000       1.101221        29.9657 
 209   0.0000       1.113650        30.3039 
 210   0.0000       1.116851        30.3911 
 211   0.0000       1.122360        30.5410 
 212   0.0000       1.124860        30.6090 
 213   0.0000       1.136007        30.9123 
 214   0.0000       1.165790        31.7227 
 215   0.0000       1.170545        31.8522 
 216   0.0000       1.179904        32.1068 
 217   0.0000       1.190239        32.3880 
 218   0.0000       1.193706        32.4824 
 219   0.0000       1.193836        32.4859 
 220   0.0000       1.195914        32.5425 
 221   0.0000       1.205817        32.8120 
 222   0.0000       1.214693        33.0535 
 223   0.0000       1.218274        33.1509 
 224   0.0000       1.245796        33.8998 
 225   0.0000       1.248802        33.9816 
 226   0.0000       1.253486        34.1091 
 227   0.0000       1.276251        34.7285 
 228   0.0000       1.285050        34.9680 
 229   0.0000       1.293368        35.1943 
 230   0.0000       1.293873        35.2081 
 231   0.0000       1.310694        35.6658 
 232   0.0000       1.315499        35.7966 
 233   0.0000       1.321784        35.9676 
 234   0.0000       1.323634        36.0179 
 235   0.0000       1.329855        36.1872 
 236   0.0000       1.336117        36.3576 
 237   0.0000       1.336583        36.3703 
 238   0.0000       1.347035        36.6547 
 239   0.0000       1.352075        36.7918 
 240   0.0000       1.361567        37.0501 
 241   0.0000       1.365059        37.1451 
 242   0.0000       1.370893        37.3039 
 243   0.0000       1.387854        37.7654 
 244   0.0000       1.395265        37.9671 
 245   0.0000       1.401649        38.1408 
 246   0.0000       1.407605        38.3029 
 247   0.0000       1.416043        38.5325 
 248   0.0000       1.435746        39.0686 
 249   0.0000       1.446213        39.3535 
 250   0.0000       1.450032        39.4574 
 251   0.0000       1.460324        39.7374 
 252   0.0000       1.472321        40.0639 
 253   0.0000       1.474973        40.1360 
 254   0.0000       1.483570        40.3700 
 255   0.0000       1.493192        40.6318 
 256   0.0000       1.509046        41.0632 
 257   0.0000       1.525498        41.5109 
 258   0.0000       1.528429        41.5907 
 259   0.0000       1.537332        41.8329 
 260   0.0000       1.549615        42.1672 
 261   0.0000       1.554432        42.2982 
 262   0.0000       1.559607        42.4391 
 263   0.0000       1.560475        42.4627 
 264   0.0000       1.587716        43.2039 
 265   0.0000       1.598641        43.5012 
 266   0.0000       1.621480        44.1227 
 267   0.0000       1.624239        44.1978 
 268   0.0000       1.625115        44.2216 
 269   0.0000       1.626862        44.2692 
 270   0.0000       1.627706        44.2921 
 271   0.0000       1.632926        44.4342 
 272   0.0000       1.633886        44.4603 
 273   0.0000       1.641605        44.6704 
 274   0.0000       1.645859        44.7861 
 275   0.0000       1.658767        45.1373 
 276   0.0000       1.673557        45.5398 
 277   0.0000       1.694432        46.1078 
 278   0.0000       1.698939        46.2305 
 279   0.0000       1.702485        46.3270 
 280   0.0000       1.708399        46.4879 
 281   0.0000       1.711722        46.5783 
 282   0.0000       1.719551        46.7914 
 283   0.0000       1.728679        47.0397 
 284   0.0000       1.737106        47.2691 
 285   0.0000       1.744946        47.4824 
 286   0.0000       1.747015        47.5387 
 287   0.0000       1.747605        47.5548 
 288   0.0000       1.754053        47.7302 
 289   0.0000       1.759960        47.8909 
 290   0.0000       1.769588        48.1529 
 291   0.0000       1.776107        48.3303 
 292   0.0000       1.776552        48.3424 
 293   0.0000       1.781086        48.4658 
 294   0.0000       1.786348        48.6090 
 295   0.0000       1.795935        48.8699 
 296   0.0000       1.798453        48.9384 
 297   0.0000       1.803619        49.0790 
 298   0.0000       1.808713        49.2176 
 299   0.0000       1.816090        49.4183 
 300   0.0000       1.824274        49.6410 
 301   0.0000       1.826732        49.7079 
 302   0.0000       1.831424        49.8356 
 303   0.0000       1.835840        49.9557 
 304   0.0000       1.839325        50.0506 
 305   0.0000       1.845554        50.2201 
 306   0.0000       1.857676        50.5499 
 307   0.0000       1.858573        50.5743 
 308   0.0000       1.868342        50.8402 
 309   0.0000       1.874763        51.0149 
 310   0.0000       1.880836        51.1802 
 311   0.0000       1.882362        51.2217 
 312   0.0000       1.884748        51.2866 
 313   0.0000       1.890971        51.4559 
 314   0.0000       1.895387        51.5761 
 315   0.0000       1.899150        51.6785 
 316   0.0000       1.904628        51.8276 
 317   0.0000       1.909156        51.9508 
 318   0.0000       1.917627        52.1813 
 319   0.0000       1.920800        52.2676 
 320   0.0000       1.929629        52.5079 
 321   0.0000       1.933600        52.6159 
 322   0.0000       1.940988        52.8170 
 323   0.0000       1.954371        53.1811 
 324   0.0000       1.956361        53.2353 
 325   0.0000       1.964820        53.4655 
 326   0.0000       1.966379        53.5079 
 327   0.0000       1.975014        53.7429 
 328   0.0000       1.977577        53.8126 
 329   0.0000       1.984482        54.0005 
 330   0.0000       1.984996        54.0145 
 331   0.0000       2.002716        54.4967 
 332   0.0000       2.006440        54.5980 
 333   0.0000       2.010289        54.7027 
 334   0.0000       2.014750        54.8241 
 335   0.0000       2.016413        54.8694 
 336   0.0000       2.016751        54.8786 
 337   0.0000       2.031098        55.2690 
 338   0.0000       2.037066        55.4314 
 339   0.0000       2.040028        55.5120 
 340   0.0000       2.045473        55.6602 
 341   0.0000       2.051868        55.8342 
 342   0.0000       2.058779        56.0222 
 343   0.0000       2.074683        56.4550 
 344   0.0000       2.082452        56.6664 
 345   0.0000       2.086620        56.7798 
 346   0.0000       2.095148        57.0119 
 347   0.0000       2.095434        57.0196 
 348   0.0000       2.109234        57.3952 
 349   0.0000       2.113163        57.5021 
 350   0.0000       2.127979        57.9053 
 351   0.0000       2.128995        57.9329 
 352   0.0000       2.135320        58.1050 
 353   0.0000       2.136909        58.1482 
 354   0.0000       2.145257        58.3754 
 355   0.0000       2.146969        58.4220 
 356   0.0000       2.163870        58.8819 
 357   0.0000       2.167035        58.9680 
 358   0.0000       2.170140        59.0525 
 359   0.0000       2.174784        59.1789 
 360   0.0000       2.179956        59.3196 
 361   0.0000       2.183302        59.4107 
 362   0.0000       2.196093        59.7587 
 363   0.0000       2.199898        59.8623 
 364   0.0000       2.222901        60.4882 
 365   0.0000       2.225664        60.5634 
 366   0.0000       2.238877        60.9229 
 367   0.0000       2.240215        60.9593 
 368   0.0000       2.252988        61.3069 
 369   0.0000       2.266185        61.6660 
 370   0.0000       2.269935        61.7681 
 371   0.0000       2.270311        61.7783 
 372   0.0000       2.276542        61.9479 
 373   0.0000       2.281681        62.0877 
 374   0.0000       2.289957        62.3129 
 375   0.0000       2.296202        62.4828 
 376   0.0000       2.305022        62.7228 
 377   0.0000       2.307662        62.7947 
 378   0.0000       2.336295        63.5738 
 379   0.0000       2.341356        63.7115 
 380   0.0000       2.346271        63.8453 
 381   0.0000       2.347972        63.8916 
 382   0.0000       2.358241        64.1710 
 383   0.0000       2.369426        64.4754 
 384   0.0000       2.386199        64.9318 
 385   0.0000       2.393941        65.1425 
 386   0.0000       2.413325        65.6699 
 387   0.0000       2.424187        65.9655 
 388   0.0000       2.424655        65.9782 
 389   0.0000       2.432042        66.1792 
 390   0.0000       2.444203        66.5101 
 391   0.0000       2.457643        66.8759 
 392   0.0000       2.466909        67.1280 
 393   0.0000       2.478991        67.4568 
 394   0.0000       2.482245        67.5453 
 395   0.0000       2.506359        68.2015 
 396   0.0000       2.507437        68.2308 
 397   0.0000       2.517487        68.5043 
 398   0.0000       2.522198        68.6325 
 399   0.0000       2.526401        68.7469 
 400   0.0000       2.561068        69.6902 
 401   0.0000       2.563559        69.7580 
 402   0.0000       2.565515        69.8112 
 403   0.0000       2.581760        70.2532 
 404   0.0000       2.600346        70.7590 
 405   0.0000       2.604734        70.8784 
 406   0.0000       2.618235        71.2458 
 407   0.0000       2.620869        71.3175 
 408   0.0000       2.626042        71.4582 
 409   0.0000       2.639626        71.8279 
 410   0.0000       2.647969        72.0549 
 411   0.0000       2.657329        72.3096 
 412   0.0000       2.672089        72.7112 
 413   0.0000       2.674028        72.7640 
 414   0.0000       2.687055        73.1185 
 415   0.0000       2.702337        73.5343 
 416   0.0000       2.703733        73.5723 
 417   0.0000       2.710936        73.7683 
 418   0.0000       2.720017        74.0154 
 419   0.0000       2.746039        74.7235 
 420   0.0000       2.766248        75.2734 
 421   0.0000       2.788456        75.8777 
 422   0.0000       2.791462        75.9595 
 423   0.0000       2.794376        76.0388 
 424   0.0000       2.809819        76.4591 
 425   0.0000       2.836325        77.1803 
 426   0.0000       2.837057        77.2002 
 427   0.0000       2.851448        77.5918 
 428   0.0000       2.874648        78.2231 
 429   0.0000       2.895681        78.7955 
 430   0.0000       2.896253        78.8110 
 431   0.0000       2.915628        79.3383 
 432   0.0000       2.932247        79.7905 
 433   0.0000       2.938889        79.9712 
 434   0.0000       2.984563        81.2141 
 435   0.0000       2.985400        81.2369 
 436   0.0000       2.992881        81.4404 
 437   0.0000       3.003028        81.7166 
 438   0.0000       3.024161        82.2916 
 439   0.0000       3.037643        82.6585 
 440   0.0000       3.038688        82.6869 
 441   0.0000       3.044634        82.8487 
 442   0.0000       3.087075        84.0036 
 443   0.0000       3.090236        84.0896 
 444   0.0000       3.092964        84.1638 
 445   0.0000       3.102924        84.4349 
 446   0.0000       3.130003        85.1717 
 447   0.0000       3.144259        85.5596 
 448   0.0000       3.151772        85.7641 
 449   0.0000       3.152966        85.7966 
 450   0.0000       3.170264        86.2673 
 451   0.0000       3.176897        86.4478 
 452   0.0000       3.182259        86.5937 
 453   0.0000       3.185119        86.6715 
 454   0.0000       3.215358        87.4943 
 455   0.0000       3.224941        87.7551 
 456   0.0000       3.226273        87.7914 
 457   0.0000       3.251578        88.4799 
 458   0.0000       3.255010        88.5733 
 459   0.0000       3.256134        88.6039 
 460   0.0000       3.279514        89.2401 
 461   0.0000       3.280515        89.2673 
 462   0.0000       3.293362        89.6169 
 463   0.0000       3.310264        90.0769 
 464   0.0000       3.311066        90.0987 
 465   0.0000       3.337136        90.8081 
 466   0.0000       3.349056        91.1325 
 467   0.0000       3.368456        91.6603 
 468   0.0000       3.376612        91.8823 
 469   0.0000       3.386110        92.1407 
 470   0.0000       3.389551        92.2344 
 471   0.0000       3.391553        92.2889 
 472   0.0000       3.422703        93.1365 
 473   0.0000       3.424495        93.1852 
 474   0.0000       3.427044        93.2546 
 475   0.0000       3.459383        94.1346 
 476   0.0000       3.478303        94.6494 
 477   0.0000       3.478871        94.6649 
 478   0.0000       3.488500        94.9269 
 479   0.0000       3.500388        95.2504 
 480   0.0000       3.511724        95.5589 
 481   0.0000       3.523006        95.8659 
 482   0.0000       3.530897        96.0806 
 483   0.0000       3.531775        96.1045 
 484   0.0000       3.565271        97.0160 
 485   0.0000       3.578500        97.3759 
 486   0.0000       3.622613        98.5763 
 487   0.0000       3.625800        98.6630 
 488   0.0000       3.633606        98.8754 
 489   0.0000       3.650198        99.3269 
 490   0.0000       3.651837        99.3715 
 491   0.0000       3.662989        99.6750 
 492   0.0000       3.666388        99.7675 
 493   0.0000       3.684844       100.2697 
 494   0.0000       3.702313       100.7451 
 495   0.0000       3.715312       101.0988 
 496   0.0000       3.723036       101.3090 
 497   0.0000       3.728542       101.4588 
 498   0.0000       3.739016       101.7438 
 499   0.0000       3.753244       102.1310 
 500   0.0000       3.757958       102.2592 
 501   0.0000       3.767125       102.5087 
 502   0.0000       3.774959       102.7219 
 503   0.0000       3.790018       103.1316 
 504   0.0000       3.793423       103.2243 
 505   0.0000       3.802475       103.4706 
 506   0.0000       3.810472       103.6882 
 507   0.0000       3.820775       103.9686 
 508   0.0000       3.836004       104.3830 
 509   0.0000       3.842310       104.5546 
 510   0.0000       3.848180       104.7143 
 511   0.0000       3.861859       105.0865 
 512   0.0000       3.863048       105.1189 
 513   0.0000       3.866747       105.2195 
 514   0.0000       3.890093       105.8548 
 515   0.0000       3.894284       105.9689 
 516   0.0000       3.914581       106.5212 
 517   0.0000       3.916260       106.5669 
 518   0.0000       3.931498       106.9815 
 519   0.0000       3.940261       107.2199 
 520   0.0000       3.948628       107.4476 
 521   0.0000       3.967513       107.9615 
 522   0.0000       3.991321       108.6094 
 523   0.0000       4.018488       109.3486 
 524   0.0000       4.035228       109.8041 
 525   0.0000       4.042286       109.9962 
 526   0.0000       4.055113       110.3452 
 527   0.0000       4.075180       110.8913 
 528   0.0000       4.084092       111.1338 
 529   0.0000       4.089086       111.2697 
 530   0.0000       4.094773       111.4244 
 531   0.0000       4.115440       111.9868 
 532   0.0000       4.116678       112.0205 
 533   0.0000       4.157288       113.1255 
 534   0.0000       4.163189       113.2861 
 535   0.0000       4.176228       113.6409 
 536   0.0000       4.183680       113.8437 
 537   0.0000       4.198400       114.2443 
 538   0.0000       4.202800       114.3640 
 539   0.0000       4.231454       115.1437 
 540   0.0000       4.234693       115.2319 
 541   0.0000       4.249355       115.6308 
 542   0.0000       4.270190       116.1978 
 543   0.0000       4.288243       116.6890 
 544   0.0000       4.298394       116.9653 
 545   0.0000       4.306248       117.1790 
 546   0.0000       4.340845       118.1204 
 547   0.0000       4.348471       118.3279 
 548   0.0000       4.373650       119.0131 
 549   0.0000       4.376006       119.0772 
 550   0.0000       4.379264       119.1658 
 551   0.0000       4.400490       119.7434 
 552   0.0000       4.415870       120.1619 
 553   0.0000       4.419114       120.2502 
 554   0.0000       4.423889       120.3801 
 555   0.0000       4.437743       120.7571 
 556   0.0000       4.463244       121.4510 
 557   0.0000       4.465483       121.5120 
 558   0.0000       4.471554       121.6772 
 559   0.0000       4.473449       121.7287 
 560   0.0000       4.502334       122.5147 
 561   0.0000       4.510927       122.7486 
 562   0.0000       4.538781       123.5065 
 563   0.0000       4.538974       123.5118 
 564   0.0000       4.551837       123.8618 
 565   0.0000       4.567001       124.2744 
 566   0.0000       4.572718       124.4300 
 567   0.0000       4.576325       124.5281 
 568   0.0000       4.596051       125.0649 
 569   0.0000       4.600589       125.1884 
 570   0.0000       4.604459       125.2937 
 571   0.0000       4.611896       125.4961 
 572   0.0000       4.629274       125.9689 
 573   0.0000       4.635042       126.1259 
 574   0.0000       4.663764       126.9075 
 575   0.0000       4.670844       127.1001 
 576   0.0000       4.677325       127.2765 
 577   0.0000       4.680562       127.3646 
 578   0.0000       4.718905       128.4079 
 579   0.0000       4.719520       128.4247 
 580   0.0000       4.722450       128.5044 
 581   0.0000       4.771186       129.8306 
 582   0.0000       4.779452       130.0555 
 583   0.0000       4.804206       130.7291 
 584   0.0000       4.810504       130.9005 
 585   0.0000       4.812990       130.9681 
 586   0.0000       4.831263       131.4653 
 587   0.0000       4.846028       131.8671 
 588   0.0000       4.863869       132.3526 
 589   0.0000       4.883000       132.8732 
 590   0.0000       4.885164       132.9321 
 591   0.0000       4.897472       133.2670 
 592   0.0000       4.905283       133.4795 
 593   0.0000       4.911783       133.6564 
 594   0.0000       4.942702       134.4978 
 595   0.0000       4.944074       134.5351 
 596   0.0000       4.966927       135.1570 
 597   0.0000       4.974850       135.3725 
 598   0.0000       4.985022       135.6493 
 599   0.0000       4.985333       135.6578 
 600   0.0000       5.006183       136.2252 
 601   0.0000       5.019710       136.5933 
 602   0.0000       5.051133       137.4483 
 603   0.0000       5.079289       138.2145 
 604   0.0000       5.082067       138.2901 
 605   0.0000       5.084451       138.3550 
 606   0.0000       5.098543       138.7384 
 607   0.0000       5.106407       138.9524 
 608   0.0000       5.106479       138.9544 
 609   0.0000       5.129860       139.5906 
 610   0.0000       5.162145       140.4691 
 611   0.0000       5.170875       140.7067 
 612   0.0000       5.173755       140.7850 
 613   0.0000       5.184183       141.0688 
 614   0.0000       5.210321       141.7801 
 615   0.0000       5.234590       142.4404 
 616   0.0000       5.237748       142.5264 
 617   0.0000       5.258794       143.0991 
 618   0.0000       5.263375       143.2237 
 619   0.0000       5.276885       143.5913 
 620   0.0000       5.282839       143.7533 
 621   0.0000       5.285179       143.8170 
 622   0.0000       5.306358       144.3933 
 623   0.0000       5.307848       144.4339 
 624   0.0000       5.320151       144.7687 
 625   0.0000       5.322325       144.8278 
 626   0.0000       5.331971       145.0903 
 627   0.0000       5.335771       145.1937 
 628   0.0000       5.344502       145.4313 
 629   0.0000       5.368975       146.0972 
 630   0.0000       5.391205       146.7021 
 631   0.0000       5.477049       149.0381 
 632   0.0000       5.499373       149.6455 
 633   0.0000       5.513263       150.0235 
 634   0.0000       5.517909       150.1499 
 635   0.0000       5.536473       150.6551 
 636   0.0000       5.570802       151.5892 
 637   0.0000       5.586913       152.0276 
 638   0.0000       5.596887       152.2990 
 639   0.0000       5.621357       152.9649 
 640   0.0000       5.627890       153.1427 
 641   0.0000       5.635278       153.3437 
 642   0.0000       5.638098       153.4204 
 643   0.0000       5.679324       154.5423 
 644   0.0000       5.681859       154.6112 
 645   0.0000       5.707123       155.2987 
 646   0.0000       5.719088       155.6243 
 647   0.0000       5.739925       156.1913 
 648   0.0000       5.746075       156.3587 
 649   0.0000       5.753733       156.5670 
 650   0.0000       5.763562       156.8345 
 651   0.0000       5.771604       157.0533 
 652   0.0000       5.775732       157.1657 
 653   0.0000       5.813116       158.1829 
 654   0.0000       5.886185       160.1712 
 655   0.0000       5.889847       160.2709 
 656   0.0000       5.897733       160.4855 
 657   0.0000       5.906846       160.7334 
 658   0.0000       5.933006       161.4453 
 659   0.0000       5.954352       162.0262 
 660   0.0000       5.985789       162.8816 
 661   0.0000       5.997462       163.1992 
 662   0.0000       6.062482       164.9685 
 663   0.0000       6.064632       165.0270 
 664   0.0000       6.104915       166.1232 
 665   0.0000       6.107813       166.2020 
 666   0.0000       6.128573       166.7670 
 667   0.0000       6.134899       166.9391 
 668   0.0000       6.190154       168.4427 
 669   0.0000       6.201902       168.7623 
 670   0.0000       6.211262       169.0170 
 671   0.0000       6.212714       169.0565 
 672   0.0000       6.232008       169.5816 
 673   0.0000       6.261050       170.3718 
 674   0.0000       6.288489       171.1185 
 675   0.0000       6.298498       171.3908 
 676   0.0000       6.318159       171.9258 
 677   0.0000       6.338424       172.4773 
 678   0.0000       6.359825       173.0596 
 679   0.0000       6.367379       173.2652 
 680   0.0000       6.392545       173.9500 
 681   0.0000       6.419810       174.6919 
 682   0.0000       6.436685       175.1511 
 683   0.0000       6.457725       175.7236 
 684   0.0000       6.612520       179.9358 
 685   0.0000       6.615630       180.0205 
 686   0.0000       6.655968       181.1181 
 687   0.0000       6.666044       181.3923 
 688   0.0000       6.692159       182.1029 
 689   0.0000       6.692384       182.1090 
 690   0.0000       6.939654       188.8376 
 691   0.0000       6.959015       189.3644 
 692   0.0000       6.962401       189.4566 
 693   0.0000       6.965121       189.5306 
 694   0.0000       6.975618       189.8162 
 695   0.0000       6.991551       190.2498 
 696   0.0000       6.996583       190.3867 
 697   0.0000       7.006746       190.6633 
 698   0.0000       7.020437       191.0358 
 699   0.0000       7.032807       191.3724 
 700   0.0000       7.036454       191.4716 
 701   0.0000       7.040188       191.5733 
 702   0.0000       7.055090       191.9788 
 703   0.0000       7.056664       192.0216 
 704   0.0000       7.087705       192.8663 
 705   0.0000       7.095617       193.0816 
 706   0.0000       7.127274       193.9430 
 707   0.0000       7.127350       193.9451 
 708   0.0000       7.273534       197.9229 
 709   0.0000       7.301594       198.6865 
 710   0.0000       7.315209       199.0570 
 711   0.0000       7.344302       199.8486 
 712   0.0000       7.353545       200.1001 
 713   0.0000       7.360729       200.2956 
 714   0.0000       7.735884       210.5041 
 715   0.0000       7.754500       211.0107 
 716   0.0000       7.778770       211.6711 
 717   0.0000       7.782871       211.7827 
 718   0.0000       7.825336       212.9382 
 719   0.0000       7.830708       213.0844 
 720   0.0000       7.878587       214.3873 
 721   0.0000       7.885478       214.5748 
 722   0.0000       7.901071       214.9991 
 723   0.0000       7.908145       215.1916 
 724   0.0000       7.910791       215.2636 
 725   0.0000       7.915364       215.3880 
 726   0.0000       7.932545       215.8555 
 727   0.0000       7.939483       216.0443 
 728   0.0000       7.944720       216.1868 
 729   0.0000       7.948968       216.3024 
 730   0.0000       7.990850       217.4421 
 731   0.0000       7.991401       217.4571 
 732   0.0000       8.008648       217.9264 
 733   0.0000       8.008946       217.9345 
 734   0.0000       8.031462       218.5472 
 735   0.0000       8.036911       218.6955 
 736   0.0000       8.044521       218.9026 
 737   0.0000       8.046483       218.9559 
 738   0.0000       8.068871       219.5651 
 739   0.0000       8.075113       219.7350 
 740   0.0000       8.080147       219.8720 
 741   0.0000       8.095171       220.2808 
 742   0.0000       8.101920       220.4645 
 743   0.0000       8.105091       220.5508 
 744   0.0000       8.116695       220.8665 
 745   0.0000       8.123121       221.0414 
 746   0.0000       8.125672       221.1108 
 747   0.0000       8.133741       221.3304 
 748   0.0000       8.148815       221.7405 
 749   0.0000       8.175875       222.4769 
 750   0.0000       8.187022       222.7802 
 751   0.0000       8.204427       223.2538 
 752   0.0000       8.207698       223.3428 
 753   0.0000       8.227870       223.8917 
 754   0.0000       8.249691       224.4855 
 755   0.0000       8.255953       224.6559 
 756   0.0000       8.288851       225.5511 
 757   0.0000       8.305412       226.0017 
 758   0.0000       8.320969       226.4251 
 759   0.0000       8.331140       226.7019 
 760   0.0000       8.340391       226.9536 
 761   0.0000       8.356987       227.4052 
 762   0.0000       8.375947       227.9211 
 763   0.0000       8.383573       228.1286 
 764   0.0000       8.398868       228.5448 
 765   0.0000       8.409905       228.8451 
 766   0.0000       8.448180       229.8867 
 767   0.0000       8.463459       230.3024 
 768   0.0000       8.589962       233.7448 
 769   0.0000       8.592824       233.8226 
 770   0.0000       8.597397       233.9471 
 771   0.0000       8.599632       234.0079 
 772   0.0000       8.676890       236.1102 
 773   0.0000       8.677664       236.1312 
 774   0.0000       8.766478       238.5480 
 775   0.0000       8.776390       238.8177 
 776   0.0000       8.809971       239.7315 
 777   0.0000       8.822760       240.0795 
 778   0.0000       8.835222       240.4186 
 779   0.0000       8.842336       240.6122 
 780   0.0000       8.884450       241.7582 
 781   0.0000       8.895379       242.0556 
 782   0.0000       8.897551       242.1147 
 783   0.0000       8.908865       242.4225 
 784   0.0000       8.960839       243.8368 
 785   0.0000       8.968332       244.0407 
 786   0.0000       8.984430       244.4788 
 787   0.0000       8.984934       244.4925 
 788   0.0000       8.996245       244.8003 
 789   0.0000       9.010218       245.1805 
 790   0.0000       9.046597       246.1704 
 791   0.0000       9.053551       246.3596 
 792   0.0000       9.102051       247.6794 
 793   0.0000       9.114385       248.0150 
 794   0.0000       9.135559       248.5912 
 795   0.0000       9.150921       249.0092 
 796   0.0000       9.166843       249.4425 
 797   0.0000       9.177369       249.7289 
 798   0.0000       9.209575       250.6053 
 799   0.0000       9.211701       250.6631 
 800   0.0000       9.245898       251.5937 
 801   0.0000       9.266712       252.1600 
 802   0.0000       9.272421       252.3154 
 803   0.0000       9.272863       252.3274 
 804   0.0000       9.286301       252.6931 
 805   0.0000       9.309042       253.3119 
 806   0.0000       9.310601       253.3543 
 807   0.0000       9.319630       253.6000 
 808   0.0000       9.327544       253.8154 
 809   0.0000       9.335538       254.0329 
 810   0.0000       9.357854       254.6401 
 811   0.0000       9.370075       254.9727 
 812   0.0000       9.376195       255.1392 
 813   0.0000       9.377668       255.1793 
 814   0.0000       9.402575       255.8571 
 815   0.0000       9.407689       255.9962 
 816   0.0000       9.414545       256.1828 
 817   0.0000       9.419949       256.3298 
 818   0.0000       9.455483       257.2968 
 819   0.0000       9.478126       257.9129 
 820   0.0000       9.480199       257.9693 
 821   0.0000       9.510435       258.7921 
 822   0.0000       9.606527       261.4069 
 823   0.0000       9.638921       262.2884 
 824   0.0000       9.661312       262.8977 
 825   0.0000       9.665469       263.0108 
 826   0.0000       9.709350       264.2048 
 827   0.0000       9.711362       264.2596 
 828   0.0000       9.869724       268.5688 
 829   0.0000       9.880867       268.8721 
 830   0.0000       9.884232       268.9636 
 831   0.0000       9.898592       269.3544 
 832   0.0000       9.899532       269.3800 
 833   0.0000       9.911852       269.7152 
 834   0.0000       9.951429       270.7922 
 835   0.0000       9.955120       270.8926 
 836   0.0000       9.988077       271.7894 
 837   0.0000       9.993692       271.9422 
 838   0.0000      10.000017       272.1143 
 839   0.0000      10.005609       272.2665 
 840   0.0000      10.054916       273.6082 
 841   0.0000      10.066188       273.9149 
 842   0.0000      10.107896       275.0498 
 843   0.0000      10.125902       275.5398 
 844   0.0000      10.146772       276.1077 
 845   0.0000      10.151332       276.2318 
 846   0.0000      10.162183       276.5271 
 847   0.0000      10.164863       276.6000 
 848   0.0000      10.193995       277.3927 
 849   0.0000      10.204535       277.6795 
 850   0.0000      10.245724       278.8003 
 851   0.0000      10.252098       278.9738 
 852   0.0000      10.261021       279.2166 
 853   0.0000      10.278121       279.6819 
 854   0.0000      10.306563       280.4558 
 855   0.0000      10.321103       280.8515 
 856   0.0000      10.348520       281.5976 
 857   0.0000      10.356460       281.8136 
 858   0.0000      10.487047       285.3671 
 859   0.0000      10.493289       285.5369 
 860   0.0000      10.507850       285.9331 
 861   0.0000      10.526344       286.4364 
 862   0.0000      10.555225       287.2223 
 863   0.0000      10.557350       287.2801 
 864   0.0000      10.671729       290.3925 
 865   0.0000      10.687179       290.8129 
 866   0.0000      10.708896       291.4039 
 867   0.0000      10.732773       292.0536 
 868   0.0000      10.741764       292.2983 
 869   0.0000      10.772985       293.1478 
 870   0.0000      11.127154       302.7853 
 871   0.0000      11.138837       303.1032 
 872   0.0000      11.147456       303.3377 
 873   0.0000      11.181299       304.2586 
 874   0.0000      11.222612       305.3828 
 875   0.0000      11.226604       305.4914 
 876   0.0000      11.286192       307.1129 
 877   0.0000      11.288651       307.1798 
 878   0.0000      11.310342       307.7701 
 879   0.0000      11.312095       307.8177 
 880   0.0000      11.338721       308.5423 
 881   0.0000      11.362118       309.1789 
 882   0.0000      11.403449       310.3036 
 883   0.0000      11.431575       311.0690 
 884   0.0000      11.433602       311.1241 
 885   0.0000      11.437818       311.2388 
 886   0.0000      11.458723       311.8077 
 887   0.0000      11.459982       311.8420 
 888   0.0000      11.484639       312.5129 
 889   0.0000      11.485491       312.5361 
 890   0.0000      11.495449       312.8071 
 891   0.0000      11.504153       313.0439 
 892   0.0000      11.530181       313.7522 
 893   0.0000      11.550236       314.2979 
 894   0.0000      11.574088       314.9470 
 895   0.0000      11.585440       315.2558 
 896   0.0000      11.598899       315.6221 
 897   0.0000      11.604724       315.7806 
 898   0.0000      11.617383       316.1251 
 899   0.0000      11.631674       316.5139 
 900   0.0000      11.726933       319.1061 
 901   0.0000      11.752312       319.7967 
 902   0.0000      11.786960       320.7395 
 903   0.0000      11.790103       320.8250 
 904   0.0000      11.793671       320.9221 
 905   0.0000      11.812187       321.4259 
 906   0.0000      11.838481       322.1414 
 907   0.0000      11.855218       322.5969 
 908   0.0000      11.879007       323.2442 
 909   0.0000      11.896654       323.7244 
 910   0.0000      11.896872       323.7303 
 911   0.0000      11.905969       323.9779 
 912   0.0000      11.912628       324.1591 
 913   0.0000      11.924268       324.4758 
 914   0.0000      11.926946       324.5487 
 915   0.0000      11.934501       324.7543 
 916   0.0000      11.942742       324.9785 
 917   0.0000      11.957035       325.3675 
 918   0.0000      11.988838       326.2329 
 919   0.0000      11.998305       326.4905 
 920   0.0000      12.012313       326.8716 
 921   0.0000      12.032230       327.4136 
 922   0.0000      12.038343       327.5800 
 923   0.0000      12.058573       328.1305 
 924   0.0000      12.241932       333.1199 
 925   0.0000      12.243361       333.1588 
 926   0.0000      12.252057       333.3954 
 927   0.0000      12.259431       333.5961 
 928   0.0000      12.281953       334.2089 
 929   0.0000      12.284004       334.2648 
 930   0.0000      12.328181       335.4669 
 931   0.0000      12.329679       335.5076 
 932   0.0000      12.345129       335.9280 
 933   0.0000      12.369197       336.5830 
 934   0.0000      12.383598       336.9748 
 935   0.0000      12.387656       337.0852 
 936   0.0000      12.395996       337.3122 
 937   0.0000      12.411707       337.7397 
 938   0.0000      12.419415       337.9495 
 939   0.0000      12.430094       338.2400 
 940   0.0000      12.434669       338.3646 
 941   0.0000      12.437081       338.4302 
 942   0.0000      12.626412       343.5821 
 943   0.0000      12.629003       343.6526 
 944   0.0000      12.677203       344.9642 
 945   0.0000      12.689540       345.2999 
 946   0.0000      12.713034       345.9393 
[...]
                   -0.005933643               -0.002437950     -0.000048883     -0.003063496     -0.000383314 
                                                 ( 41.09%)        (  0.82%)        ( 51.63%)        (  6.46%)
----------------------------------------------------------------------------------------------------------------------------------------------------------

Overall summary of excitation mechanisms for this fragment pair:
  Total local dipole excitations    (i->a(i))(j->b(j)) -0.002437950 (41.087 per cent)
  Total Cross excitations           (i->a(j))(j->b(i)) -0.000048883 ( 0.824 per cent)
  Total Charge transfer excitations (i->a(i))(j->b(i)) -0.003063496 (51.629 per cent)
  Total Charge transfer excitations (i->a(j))(j->b(j)) -0.000383314 ( 6.460 per cent)
                                                       -----------------------------
  Sum                                                  -0.005933643
  Consistency check                                    -0.005933643
 done 
 
 
Summary Strong Pairs Energy Decomposition    
 
Intra fragment contributions: 
INTRA Fragment 1                       -0.275479254 
INTRA Fragment 2                       -0.275963612 
INTRA Fragment 3                       -0.276500309 
INTRA Fragment 4                       -0.275669385 
INTRA Fragment 5                       -0.276691992 
INTRA Fragment 6                       -0.276603073 

Charge transfer contributions: 
Charge Transfer 1 to 2                 -0.000000028 
Charge Transfer 1 to 3                 -0.000396253 
Charge Transfer 1 to 4                  0.000000000 
Charge Transfer 1 to 5                 -0.011782576 
Charge Transfer 1 to 6                 -0.000000216 
Charge Transfer 2 to 1                 -0.000000610 
Charge Transfer 2 to 3                 -0.011442388 
Charge Transfer 2 to 4                 -0.000345382 
Charge Transfer 2 to 5                  0.000000000 
Charge Transfer 2 to 6                 -0.000000041 
Charge Transfer 3 to 1                 -0.010882223 
Charge Transfer 3 to 2                 -0.000384827 
Charge Transfer 3 to 4                 -0.000000029 
Charge Transfer 3 to 5                 -0.000000283 
Charge Transfer 3 to 6                  0.000000000 
Charge Transfer 4 to 1                  0.000000000 
Charge Transfer 4 to 2                 -0.011478575 
Charge Transfer 4 to 3                 -0.000000215 
Charge Transfer 4 to 5                 -0.000000028 
Charge Transfer 4 to 6                 -0.000396150 
Charge Transfer 5 to 1                 -0.000335514 
Charge Transfer 5 to 2                  0.000000000 
Charge Transfer 5 to 3                 -0.000000041 
Charge Transfer 5 to 4                 -0.000000608 
Charge Transfer 5 to 6                 -0.010713693 
Charge Transfer 6 to 1                 -0.000000029 
Charge Transfer 6 to 2                 -0.000000284 
Charge Transfer 6 to 3                  0.000000000 
Charge Transfer 6 to 4                 -0.010778575 
Charge Transfer 6 to 5                 -0.000383314 

Dispersion contributions: 
Dispersion  2,1                        -0.000029855 
Dispersion  3,1                        -0.002451697 
Dispersion  3,2                        -0.002486990 
Dispersion  4,1                         0.000000000 
Dispersion  4,2                        -0.002583941 
Dispersion  4,3                        -0.000034153 
Dispersion  5,1                        -0.002477885 
Dispersion  5,2                         0.000000000 
Dispersion  5,3                        -0.000027192 
Dispersion  5,4                        -0.000029838 
Dispersion  6,1                        -0.000034130 
Dispersion  6,2                        -0.000027204 
Dispersion  6,3                         0.000000000 
Dispersion  6,4                        -0.002451054 
Dispersion  6,5                        -0.002486832 

Singles contributions:                   
Singles energy                         -0.000003681 
 
Delocalized contributions: 
Delocalized correlation                -0.000166349 
 

------------------------------------------------- 
FINAL SUMMARY DLPNO-CCSD ENERGY DECOMPOSITION (Eh)
------------------------------------------------- 
 
Intrafragment REF. energy:                   
Intra fragment   1 (REF.)              -75.988820298     
Intra fragment   2 (REF.)              -75.988716700     
Intra fragment   3 (REF.)              -75.987031511     
Intra fragment   4 (REF.)              -75.988821238     
Intra fragment   5 (REF.)              -75.988735744     
Intra fragment   6 (REF.)              -75.987086143     

Interaction of fragments  2 and  1:  
Electrostatics (REF.)                  -0.003448449 
Exchange (REF.)                        -0.000027740 
Dispersion (strong pairs)              -0.000029855 
Dispersion (weak pairs)                -0.000063048 

Interaction of fragments  3 and  1:  
Electrostatics (REF.)                  -0.071495090 
Exchange (REF.)                        -0.011152892 
Dispersion (strong pairs)              -0.002451697 
Dispersion (weak pairs)                -0.000447517 

Interaction of fragments  3 and  2:  
Electrostatics (REF.)                  -0.070253387 
Exchange (REF.)                        -0.011043455 
Dispersion (strong pairs)              -0.002486990 
Dispersion (weak pairs)                -0.000444586 

Interaction of fragments  4 and  1:  
Electrostatics (REF.)                  -0.001743122 
Exchange (REF.)                        -0.000000593 
Dispersion (strong pairs)               0.000000000 
Dispersion (weak pairs)                 0.000000000 

Interaction of fragments  4 and  2:  
Electrostatics (REF.)                  -0.067418975 
Exchange (REF.)                        -0.010710236 
Dispersion (strong pairs)              -0.002583941 
Dispersion (weak pairs)                -0.000449163 

Interaction of fragments  4 and  3:  
Electrostatics (REF.)                  -0.003743222 
Exchange (REF.)                        -0.000025808 
Dispersion (strong pairs)              -0.000034153 
Dispersion (weak pairs)                -0.000077104 

Interaction of fragments  5 and  1:  
Electrostatics (REF.)                  -0.067410648 
Exchange (REF.)                        -0.010703457 
Dispersion (strong pairs)              -0.002477885 
Dispersion (weak pairs)                -0.000448761 

Interaction of fragments  5 and  2:  
Electrostatics (REF.)                  -0.001601179 
Exchange (REF.)                        -0.000004274 
Dispersion (strong pairs)               0.000000000 
Dispersion (weak pairs)                -0.000032421 

Interaction of fragments  5 and  3:  
Electrostatics (REF.)                  -0.003331238 
Exchange (REF.)                        -0.000030019 
Dispersion (strong pairs)              -0.000027192 
Dispersion (weak pairs)                -0.000067382 

Interaction of fragments  5 and  4:  
Electrostatics (REF.)                  -0.003448651 
Exchange (REF.)                        -0.000027710 
Dispersion (strong pairs)              -0.000029838 
Dispersion (weak pairs)                -0.000063017 

Interaction of fragments  6 and  1:  
Electrostatics (REF.)                  -0.003740605 
Exchange (REF.)                        -0.000025815 
Dispersion (strong pairs)              -0.000034130 
Dispersion (weak pairs)                -0.000077027 

Interaction of fragments  6 and  2:  
Electrostatics (REF.)                  -0.003328526 
Exchange (REF.)                        -0.000030056 
Dispersion (strong pairs)              -0.000027204 
Dispersion (weak pairs)                -0.000067383 

Interaction of fragments  6 and  3:  
Electrostatics (REF.)                  -0.001635956 
Exchange (REF.)                        -0.000001459 
Dispersion (strong pairs)               0.000000000 
Dispersion (weak pairs)                -0.000011625 

Interaction of fragments  6 and  4:  
Electrostatics (REF.)                  -0.071460473 
Exchange (REF.)                        -0.011144319 
Dispersion (strong pairs)              -0.002451054 
Dispersion (weak pairs)                -0.000447002 

Interaction of fragments  6 and  5:  
Electrostatics (REF.)                  -0.070214167 
Exchange (REF.)                        -0.011039781 
Dispersion (strong pairs)              -0.002486832 
Dispersion (weak pairs)                -0.000444379 

Sum of non dispersive correlation terms: 
Non dispersion (strong pairs)          -1.726399539  
Non dispersion (weak pairs)            -0.009152917  

#Time for LED analysis ..      92.3 (sec)



--------------------------------------------------------------------------------
                                    TIMINGS
--------------------------------------------------------------------------------


Total execution time                   ...     3151.170 sec

Localization of occupied MO's          ...        1.283 sec (  0.0%)
Fock Matrix Formation                  ...       24.776 sec (  0.8%)
Global overlap, Fock, MKN matrices     ...        2.505 sec (  0.1%)
Differential overlap integrals         ...        3.674 sec (  0.1%)
Organizing maps                        ...        0.176 sec (  0.0%)
RI 3-index integral generations        ...       92.633 sec (  2.9%)
RI-PNO integral transformation         ...      825.141 sec ( 26.2%)
Initial Guess                          ...       92.031 sec (  2.9%)
DIIS Solver                            ...        0.849 sec (  0.0%)
State Vector Update                    ...        0.017 sec (  0.0%)
Sigma-vector construction              ...       75.271 sec (  2.4%)
  <D|H|D>(0-ext)                       ...        0.612 sec (  0.8% of sigma)
  <D|H|D>(2-ext Fock)                  ...        0.005 sec (  0.0% of sigma)
  <D|H|D>(2-ext)                       ...       32.395 sec ( 43.0% of sigma)
  <D|H|D>(4-ext)                       ...        4.478 sec (  5.9% of sigma)
  <D|H|D>(4-ext-corr)                  ...       17.724 sec ( 23.5% of sigma)
  CCSD doubles correction              ...        0.063 sec (  0.1% of sigma)
  <S|H|S>                              ...        0.989 sec (  1.3% of sigma)
  <S|H|D>(1-ext)                       ...        0.112 sec (  0.1% of sigma)
  <D|H|S>(1-ext)                       ...        0.004 sec (  0.0% of sigma)
  <S|H|D>(3-ext)                       ...        0.102 sec (  0.1% of sigma)
  Fock-dressing                        ...        6.506 sec (  8.6% of sigma)
  Singles amplitudes                   ...        0.753 sec (  1.0% of sigma)
  (ik|jl)-dressing                     ...        1.001 sec (  1.3% of sigma)
  (ij|ab),(ia|jb)-dressing             ...        0.971 sec (  1.3% of sigma)
  Pair energies                        ...        0.042 sec (  0.1% of sigma)
Total Time for computing (T)           ...     1891.391 sec ( 60.0% of ALL)
Local Energy Decomposition             ...       92.283 sec (  2.9% of ALL)


Maximum memory used throughout the entire MDCI-calculation: 3825.9 MB

-------------------------   --------------------
FINAL SINGLE POINT ENERGY      -458.253020524726
-------------------------   --------------------


                            ***************************************
                            *     ORCA property calculations      *
                            ***************************************


  WARNING: The energy has been calculated at the MDCI level but the densities
           used in the property calculations are still SCF densities
           MDCI response densities have not been calculated 
           use %mdci Density linearized end
           or  %mdci Density unrelaxed end
           or  %mdci Density orbopt end

                                    ---------------------
                                    Active property flags
                                    ---------------------
   (+) Dipole Moment


------------------------------------------------------------------------------
                       ORCA ELECTRIC PROPERTIES CALCULATION
------------------------------------------------------------------------------

Dipole Moment Calculation                       ... on
Quadrupole Moment Calculation                   ... off
Polarizability Calculation                      ... off
GBWName                                         ... W.gbw
Electron density                                ... W.scfp
The origin for moment calculation is the CENTER OF MASS  = ( 1.530610,  1.270895 -0.232334)

-------------
DIPOLE MOMENT
-------------
                                X             Y             Z
Electronic contribution:     -0.00103       0.08769       0.13157
Nuclear contribution   :      0.00917      -0.36404      -0.54173
                        -----------------------------------------
Total Dipole Moment    :      0.00814      -0.27635      -0.41016
                        -----------------------------------------
Magnitude (a.u.)       :      0.49464
Magnitude (Debye)      :      1.25726



--------------------
Rotational spectrum 
--------------------
 
Rotational constants in cm-1:     0.043239     0.041901     0.022852 
Rotational constants in MHz :  1296.287227  1256.174798   685.073743 

 Dipole components along the rotational axes: 
x,y,z [a.u.] :    -0.000003     0.001364    -0.494634 
x,y,z [Debye]:    -0.000007     0.003467    -1.257260 

 

--------------------------------
SUGGESTED CITATIONS FOR THIS RUN
--------------------------------

Below you find a list of papers that are relevant to this ORCA run
We neither can nor want to force you to cite these paper, but we appreciate if you do
You receive ORCA, which is the product of a lot of hard work by many enthusiastic individuals, for free
The *only* thing we kindly ask in return is that you cite our papers,
We deeply appreciate it, if you show your appreciation for ORCA but *not* just citing the generic ORCA reference.

Please note that relegating all ORCA citations to the supporting information does *not* help us.
SI sections are not index - citations you put there will not count into our citation statistics
But we need these citations in order to attract the funding ressources that allow us to do what we are doing

Therefore, please consider citing at least a few of the papers listed below, if you are a happy ORCA user

In addition to the list printed below, the program has created the file W.bibtex that contains the list in bibtex format
In this format, you can import it easily in all common literature databanks and citation aid programs


List of essential papers. We consider these as the minimum necessary citations

  1. Neese,F.
     Software update: the ORCA program system, version 5.0
     WIRES Comput. Molec. Sci., 2022 12(1)e1606
     doi.org/10.1002/wcms.1606

List of papers to cite with high priority. The work reported in these papers was absolutely
necessary for this run to complete.
Our perspective: the developers of density functionals and basis sets usually get cited in chemistry papers
Good! But without the algorithms to do something with them, the functionals or basis sets would not do anything.
Hence, in our opinion, the algorithm design and method developments papers are equally worthy of getting cited

  1. Neese,F.
     An improvement of the resolution of the identity approximation for the formation of the Coulomb matrix
     J. Comp. Chem., 2003 24(14)1740-1747
     doi.org/10.1002/jcc.10318
  2. Neese,F.; Wennmohs,F.; Hansen,A.; Becker,U.
     Efficient, approximate and parallel Hartree-Fock and hybrid DFT calculations. A 'chain-of-spheres' algorithm for the Hartree-Fock exchange
     Chem. Phys., 2009 356(1-3)98-109
     doi.org/10.1016/j.chemphys.2008.10.036
  3. Neese,F.; Hansen,A.; Liakos,D.G.
     Efficient and accurate approximations to the local coupled cluster singles doubles method using a truncated pair natural orbital basis
     J. Chem. Phys., 2009 131 064103
     doi.org/10.1063/1.3173827
  4. Neese,F.; Wennmohs,F.; Hansen,A.
     Efficient and accurate local approximations to coupled-electron pair approaches: An attempt to revive the pair natural orbital method
     J. Chem. Phys., 2009 130 114108
     doi.org/10.1063/1.3086717
  5. Riplinger,C.; Neese,F.
     An efficient and near linear scaling pair natural orbital based local coupled cluster method
     J. Chem. Phys., 2013 138(3)Art. No. 034106
     doi.org/10.1063/1.4773581
  6. Riplinger,C.; Sandhoefer,B.; Hansen,A.; Neese,F.
     Natural triple excitations in local coupled cluster calculations with pair natural orbitals
     J. Chem. Phys., 2013 139(13)Art. No. 134101
     doi.org/10.1063/1.4821834
  7. Riplinger,C.; Pinski,P.; Becker,U.; Valeev,E.F.; Neese,F.
     Sparse maps-A systematic infrastructure for reduced-scaling electronic structure methods. II. Linear scaling domain based pair natural orbital coupled cluster theory
     J. Chem. Phys., 2016 144 
     doi.org/10.1063/1.4939030
  8. Schneider,W.B.; Bistoni,G.; Sparta,M.; Saitow,M.; Riplinger,C.; Auer,A.A.; Neese,F.
     Decomposition of Intermolecular Interaction Energies within the Local Pair Natural Orbital Coupled Cluster Framework
     J. Theo. Comp. Chem., 2016 12 4778-4792
     doi.org/10.1021/acs.jctc.6b00523
  9. Bistoni,G.; Riplinger,C.; Minenkov,Y.; Cavallo,L.; Auer,A.A.; Neese,F.
     Treating Subvalence Correlation Effects in Domain Based Pair Natural Orbital Coupled Cluster Calculations: An Out-of-the-Box Approach
     J. Theo. Comp. Chem., 2017 13 3220-3227
     doi.org/10.1021/acs.jctc.7b00352
 10. Guo,Y.; Riplinger,C.; Becker,U.; Liakos,D.G.; Minenkov,Y.; Cavallo,L.; Neese,F.
     Communication: An improved linear scaling perturbative triples correction for the domain based local pair-natural orbital based singles and doubles coupled cluster method DLPNO-CCSD(T)
     J. Chem. Phys., 2018 148 5
     doi.org/10.1063/1.5011798
 11. Helmich-Paris,B.; de Souza,B.; Neese,F.; Izsk,R.
     An improved chain of spheres for exchange algorithm
     J. Chem. Phys., 2021 155 104109
     doi.org/doi: 10.1063/5.0058766.

List of suggested additional citations. These are papers that are important in the 'surrounding' of 
of this run, or papers that preceded the highly important papers. If you like your results we are grateful for a citation.

  1. Izsak,R.; Neese,F.
     An overlap fitted chain of spheres exchange method
     J. Chem. Phys., 2011 135 144105
     doi.org/10.1063/1.3646921
  2. Izsak,R.; Hansen,A.; Neese,F.
     The resolution of identity and chain of spheres approximations for the LPNO-CCSD singles Fock term
     Molec. Phys., 2012 110 2413-2417
     doi.org/10.1080/00268976.2012.687466
  3. Neese,F.
     The ORCA program system
     WIRES Comput. Molec. Sci., 2012 2(1)73-78
     doi.org/10.1002/wcms.81
  4. Izsak,R.; Neese,F.; Klopper,W.
     Robust fitting techniques in the chain of spheres approximation to the Fock exchange: The role of the complementary space
     J. Chem. Phys., 2013 139 
     doi.org/10.1063/1.4819264
  5. Neese,F.
     Software update: the ORCA program system, version 4.0
     WIRES Comput. Molec. Sci., 2018 8(1)1-6
     doi.org/10.1002/wcms.1327
  6. Neese,F.; Wennmohs,F.; Becker,U.; Riplinger,C.
     The ORCA quantum chemistry program package
     J. Chem. Phys., 2020 152 Art. No. L224108
     doi.org/10.1063/5.0004608
  7. Bistoni,G.
     Finding chemical concepts in the Hilbert space: Coupled cluster analyses of noncovalent interactions
     WIRES Comput. Molec. Sci., 2020 10(3)e1442
     doi.org/10.1002/wcms.1442

Timings for individual modules:

Sum of individual times         ...     3452.909 sec (=  57.548 min)
GTO integral calculation        ...       29.494 sec (=   0.492 min)   0.9 %
SCF iterations                  ...      237.994 sec (=   3.967 min)   6.9 %
MDCI module                     ...     3185.422 sec (=  53.090 min)  92.3 %
                             ****ORCA TERMINATED NORMALLY****
TOTAL RUN TIME: 0 days 0 hours 57 minutes 35 seconds 353 msec
