                                 *****************
                                 * O   R   C   A *
                                 *****************

                                            #,                                       
                                            ###                                      
                                            ####                                     
                                            #####                                    
                                            ######                                   
                                           ########,                                 
                                     ,,################,,,,,                         
                               ,,#################################,,                 
                          ,,##########################################,,             
                       ,#########################################, ''#####,          
                    ,#############################################,,   '####,        
                  ,##################################################,,,,####,       
                ,###########''''           ''''###############################       
              ,#####''   ,,,,##########,,,,          '''####'''          '####       
            ,##' ,,,,###########################,,,                        '##       
           ' ,,###''''                  '''############,,,                           
         ,,##''                                '''############,,,,        ,,,,,,###''
      ,#''                                            '''#######################'''  
     '                                                          ''''####''''         
             ,#######,   #######,   ,#######,      ##                                
            ,#'     '#,  ##    ##  ,#'     '#,    #''#        ######   ,####,        
            ##       ##  ##   ,#'  ##            #'  '#       #        #'  '#        
            ##       ##  #######   ##           ,######,      #####,   #    #        
            '#,     ,#'  ##    ##  '#,     ,#' ,#      #,         ##   #,  ,#        
             '#######'   ##     ##  '#######'  #'      '#     #####' # '####'        



                  #######################################################
                  #                        -***-                        #
                  #          Department of theory and spectroscopy      #
                  #    Directorship and core code : Frank Neese         #
                  #        Max Planck Institute fuer Kohlenforschung    #
                  #                Kaiser Wilhelm Platz 1               #
                  #                 D-45470 Muelheim/Ruhr               #
                  #                      Germany                        #
                  #                                                     #
                  #                  All rights reserved                #
                  #                        -***-                        #
                  #######################################################


                         Program Version 5.0  -  CURRENT   -
                                (GIT: $76ccee9ca$)
                ($2022-06-14 15:14:42 +0200 $)

                  !                     WARNING:                         !
                  !         This is a DEVELOPMENT version                !

                         (BUILD: $Mi 15. Jun 00:07:41 CEST 2022$)


 With contributions from (in alphabetic order):
   Daniel Aravena         : Magnetic Suceptibility
   Michael Atanasov       : Ab Initio Ligand Field Theory (pilot matlab implementation)
   Alexander A. Auer      : GIAO ZORA, VPT2 properties, NMR spectrum
   Ute Becker             : Parallelization
   Giovanni Bistoni       : ED, misc. LED, open-shell LED, HFLD
   Martin Brehm           : Molecular dynamics
   Dmytro Bykov           : SCF Hessian
   Vijay G. Chilkuri      : MRCI spin determinant printing, contributions to CSF-ICE
   Dipayan Datta          : RHF DLPNO-CCSD density
   Achintya Kumar Dutta   : EOM-CC, STEOM-CC
   Dmitry Ganyushin       : Spin-Orbit,Spin-Spin,Magnetic field MRCI
   Miquel Garcia          : C-PCM and meta-GGA Hessian, CC/C-PCM, Gaussian charge scheme
   Yang Guo               : DLPNO-NEVPT2, F12-NEVPT2, CIM, IAO-localization
   Andreas Hansen         : Spin unrestricted coupled pair/coupled cluster methods
   Benjamin Helmich-Paris : MC-RPA, TRAH-SCF, COSX integrals
   Lee Huntington         : MR-EOM, pCC
   Robert Izsak           : Overlap fitted RIJCOSX, COSX-SCS-MP3, EOM
   Marcus Kettner         : VPT2
   Christian Kollmar      : KDIIS, OOCD, Brueckner-CCSD(T), CCSD density, CASPT2, CASPT2-K, improved NEVPT2
   Simone Kossmann        : Meta GGA functionals, TD-DFT gradient, OOMP2, MP2 Hessian
   Martin Krupicka        : Initial AUTO-CI
   Lucas Lang             : DCDCAS
   Marvin Lechner         : AUTO-CI (C++ implementation), FIC-MRCC
   Dagmar Lenk            : GEPOL surface, SMD
   Dimitrios Liakos       : Extrapolation schemes; Compound Job, initial MDCI parallelization
   Dimitrios Manganas     : Further ROCIS development; embedding schemes
   Dimitrios Pantazis     : SARC Basis sets
   Anastasios Papadopoulos: AUTO-CI, single reference methods and gradients
   Taras Petrenko         : DFT Hessian,TD-DFT gradient, ASA, ECA, R-Raman, ABS, FL, XAS/XES, NRVS
   Peter Pinski           : DLPNO-MP2, DLPNO-MP2 Gradient
   Christoph Reimann      : Effective Core Potentials
   Marius Retegan         : Local ZFS, SOC
   Christoph Riplinger    : Optimizer, TS searches, QM/MM, DLPNO-CCSD(T), (RO)-DLPNO pert. Triples
   Tobias Risthaus        : Range-separated hybrids, TD-DFT gradient, RPA, STAB
   Michael Roemelt        : Original ROCIS implementation
   Masaaki Saitow         : Open-shell DLPNO-CCSD energy and density
   Barbara Sandhoefer     : DKH picture change effects
   Avijit Sen             : IP-ROCIS
   Kantharuban Sivalingam : CASSCF convergence, NEVPT2, FIC-MRCI
   Bernardo de Souza      : ESD, SOC TD-DFT
   Georgi Stoychev        : AutoAux, RI-MP2 NMR, DLPNO-MP2 response
   Willem Van den Heuvel  : Paramagnetic NMR
   Boris Wezisla          : Elementary symmetry handling
   Frank Wennmohs         : Technical directorship


 We gratefully acknowledge several colleagues who have allowed us to
 interface, adapt or use parts of their codes:
   Stefan Grimme, W. Hujo, H. Kruse, P. Pracht,  : VdW corrections, initial TS optimization,
                  C. Bannwarth, S. Ehlert          DFT functionals, gCP, sTDA/sTD-DF
   Ed Valeev, F. Pavosevic, A. Kumar             : LibInt (2-el integral package), F12 methods
   Garnet Chan, S. Sharma, J. Yang, R. Olivares  : DMRG
   Ulf Ekstrom                                   : XCFun DFT Library
   Mihaly Kallay                                 : mrcc  (arbitrary order and MRCC methods)
   Jiri Pittner, Ondrej Demel                    : Mk-CCSD
   Frank Weinhold                                : gennbo (NPA and NBO analysis)
   Christopher J. Cramer and Donald G. Truhlar   : smd solvation model
   Lars Goerigk                                  : TD-DFT with DH, B97 family of functionals
   V. Asgeirsson, H. Jonsson                     : NEB implementation
   FAccTs GmbH                                   : IRC, NEB, NEB-TS, DLPNO-Multilevel, CI-OPT
                                                   MM, QMMM, 2- and 3-layer-ONIOM, Crystal-QMMM,
                                                   LR-CPCM, SF, NACMEs, symmetry and pop. for TD-DFT,
                                                   nearIR, NL-DFT gradient (VV10), updates on ESD,
                                                   ML-optimized integration grids
   S Lehtola, MJT Oliveira, MAL Marques          : LibXC Library
   Liviu Ungur et al                             : ANISO software


 Your calculation uses the libint2 library for the computation of 2-el integrals
 For citations please refer to: http://libint.valeyev.net

 Your ORCA version has been built with support for libXC version: 5.2.2
 For citations please refer to: https://tddft.org/programs/libxc/

 This ORCA versions uses:
   CBLAS   interface :  Fast vector & matrix operations
   LAPACKE interface :  Fast linear algebra routines
   SCALAPACK package :  Parallel linear algebra routines
   Shared memory     :  Shared parallel matrices


================================================================================

----- Orbital basis set information -----
Your calculation utilizes the basis: aug-cc-pVTZ 
    H, B-Ne : Obtained from the ccRepo (grant-hill.group.shef.ac.uk/ccrepo) Feb. 2017
              R. A. Kendall, T. H. Dunning, Jr., R. J. Harrison, J. Chem. Phys. 96, 6796 (1992)
         He : Obtained from the ccRepo (grant-hill.group.shef.ac.uk/ccrepo) Feb. 2017
              D. E. Woon, T. H. Dunning, Jr., J. Chem. Phys. 100, 2975 (1994)
  Li-Be, Na : Obtained from the ccRepo (grant-hill.group.shef.ac.uk/ccrepo) Feb. 2017
              B. P. Prascher, D. E. Woon, K. A. Peterson, T. H. Dunning, Jr., A. K. Wilson, Theor. Chem. Acc. 128, 69 (2011)
         Mg : Obtained from the Peterson Research Group Website (tyr0.chem.wsu.edu/~kipeters) Feb. 2017
              B. P. Prascher, D. E. Woon, K. A. Peterson, T. H. Dunning, Jr., A. K. Wilson, Theor. Chem. Acc. 128, 69 (2011)
      Al-Ar : Obtained from the ccRepo (grant-hill.group.shef.ac.uk/ccrepo) Feb. 2017
              D. E. Woon, T. H. Dunning, Jr., J. Chem. Phys. 98, 1358 (1993)
      Sc-Zn : Obtained from the ccRepo (grant-hill.group.shef.ac.uk/ccrepo) Feb. 2017
              N. B. Balabanov, K. A. Peterson, J. Chem. Phys. 123, 064107 (2005)
              N. B. Balabanov, K. A. Peterson, J. Chem. Phys. 125, 074110 (2006)
      Ga-Kr : Obtained from the ccRepo (grant-hill.group.shef.ac.uk/ccrepo) Feb. 2017
              A. K. Wilson, D. E. Woon, K. A. Peterson, T. H. Dunning, Jr., J. Chem. Phys. 110, 7667 (1999)
     Ag, Au : Obtained from the Peterson Research Group Website (tyr0.chem.wsu.edu/~kipeters) Feb. 2017
              K. A. Peterson, C. Puzzarini, Theor. Chem. Acc. 114, 283 (2005)

----- AuxJ basis set information -----
----- AuxC basis set information -----
================================================================================
                                        WARNINGS
                       Please study these warnings very carefully!
================================================================================


WARNING: Post HF methods need fully converged wavefunctions
  ===> : Setting SCFConvForced true
         You can overwrite this default with %scf ConvForced false 


WARNING: MDCI localization with Augmented Hessian Foster-Boys
  ===> : Switching off randomization!

INFO   : the flag for use of the SHARK integral package has been found!

================================================================================
                                       INPUT FILE
================================================================================
NAME = W.inp
|  1> ! DLPNO-CCSD(T1) aug-cc-pVTZ DEFGRID3 RIJCOSX def2/J aug-cc-pVQZ/C verytightscf TightPNO LED
|  2> 
|  3> %pal nprocs 16 end
|  4> %maxcore 4000
|  5> %scf maxiter 999 end
|  6> %basis auxj "autoaux" auxc "autoaux" autoauxlmax true end
|  7> %mdci TCutPNO 1e-7 printlevel 3 end
|  8> 
|  9> *xyz 0 1
| 10> O(1)    -1.753042425     0.416462959     0.356105280
| 11> H(1)    -1.120933301    -0.183098298     0.812596940
| 12> H(1)    -2.593310567    -0.048459739     0.359102074
| 13> O(2)     2.482542995    -1.248988714     0.449488905
| 14> H(2)     2.616828786    -1.798226083    -0.326968465
| 15> H(2)     2.828107886    -0.362220961     0.204648083
| 16> O(3)     0.012631031    -1.241255898     1.573836894
| 17> H(3)     0.908618001    -1.252949881     1.168524322
| 18> H(3)     0.168950409    -1.135399007     2.515952529
| 19> O(4)     3.364853284     1.252522284    -0.119963272
| 20> H(4)     2.731853532     1.891821037    -0.517486897
| 21> H(4)     4.212012919     1.443946099    -0.529713339
| 22> O(5)    -0.845377446     1.902266646    -1.724481185
| 23> H(5)    -1.198971324     1.335278306    -1.003913817
| 24> H(5)    -0.953209570     1.388839038    -2.529056860
| 25> O(6)     1.597560181     2.978636709    -1.236245995
| 26> H(6)     1.417961949     3.808511891    -0.786488687
| 27> H(6)     0.711446199     2.593888593    -1.420550970
| 28> *
| 29> 
| 30>                          ****END OF INPUT****
================================================================================

                       ****************************
                       * Single Point Calculation *
                       ****************************

---------------------------------
CARTESIAN COORDINATES (ANGSTROEM)
---------------------------------
  O     -1.753042    0.416463    0.356105
  H     -1.120933   -0.183098    0.812597
  H     -2.593311   -0.048460    0.359102
  O      2.482543   -1.248989    0.449489
  H      2.616829   -1.798226   -0.326968
  H      2.828108   -0.362221    0.204648
  O      0.012631   -1.241256    1.573837
  H      0.908618   -1.252950    1.168524
  H      0.168950   -1.135399    2.515953
  O      3.364853    1.252522   -0.119963
  H      2.731854    1.891821   -0.517487
  H      4.212013    1.443946   -0.529713
  O     -0.845377    1.902267   -1.724481
  H     -1.198971    1.335278   -1.003914
  H     -0.953210    1.388839   -2.529057
  O      1.597560    2.978637   -1.236246
  H      1.417962    3.808512   -0.786489
  H      0.711446    2.593889   -1.420551

----------------------------
CARTESIAN COORDINATES (A.U.)
----------------------------
  NO LB      ZA    FRAG     MASS         X           Y           Z
   0 O     8.0000    1    15.999   -3.312770    0.787001    0.672941
   1 H     1.0000    1     1.008   -2.118257   -0.346006    1.535586
   2 H     1.0000    1     1.008   -4.900647   -0.091576    0.678605
   3 O     8.0000    2    15.999    4.691326   -2.360247    0.849411
   4 H     1.0000    2     1.008    4.945090   -3.398155   -0.617881
   5 H     1.0000    2     1.008    5.344349   -0.684498    0.386729
   6 O     8.0000    3    15.999    0.023869   -2.345634    2.974121
   7 H     1.0000    3     1.008    1.717039   -2.367732    2.208191
   8 H     1.0000    3     1.008    0.319270   -2.145593    4.754461
   9 O     8.0000    4    15.999    6.358651    2.366924   -0.226698
  10 H     1.0000    4     1.008    5.162455    3.575024   -0.977909
  11 H     1.0000    4     1.008    7.959551    2.728663   -1.001013
  12 O     8.0000    5    15.999   -1.597532    3.594763   -3.258797
  13 H     1.0000    5     1.008   -2.265727    2.523310   -1.897122
  14 H     1.0000    5     1.008   -1.801305    2.624525   -4.779225
  15 O     8.0000    6    15.999    3.018951    5.628808   -2.336166
  16 H     1.0000    6     1.008    2.679560    7.197044   -1.486248
  17 H     1.0000    6     1.008    1.344438    4.901739   -2.684452

----------------------------------------------
CARTESIAN COORDINATES OF FRAGMENTS (ANGSTROEM)
----------------------------------------------

 FRAGMENT 1 
  O    -1.753042    0.416463    0.356105
  H    -1.120933   -0.183098    0.812597
  H    -2.593311   -0.048460    0.359102

 FRAGMENT 2 
  O     2.482543   -1.248989    0.449489
  H     2.616829   -1.798226   -0.326968
  H     2.828108   -0.362221    0.204648

 FRAGMENT 3 
  O     0.012631   -1.241256    1.573837
  H     0.908618   -1.252950    1.168524
  H     0.168950   -1.135399    2.515953

 FRAGMENT 4 
  O     3.364853    1.252522   -0.119963
  H     2.731854    1.891821   -0.517487
  H     4.212013    1.443946   -0.529713

 FRAGMENT 5 
  O    -0.845377    1.902267   -1.724481
  H    -1.198971    1.335278   -1.003914
  H    -0.953210    1.388839   -2.529057

 FRAGMENT 6 
  O     1.597560    2.978637   -1.236246
  H     1.417962    3.808512   -0.786489
  H     0.711446    2.593889   -1.420551

--------------------------------
INTERNAL COORDINATES (ANGSTROEM)
--------------------------------
 O      0   0   0     0.000000000000     0.00000000     0.00000000
 H      1   0   0     0.983575254462     0.00000000     0.00000000
 H      1   2   0     0.960319033629   105.41217712     0.00000000
 O      2   1   3     3.775316045027   137.80610674   140.81571119
 H      4   2   1     0.960510493747   111.87821583   289.96800700
 H      4   2   1     0.982710114820    96.01764691    39.23297988
 O      2   1   3     1.727469788097   178.43945154   113.75138538
 H      7   2   1     0.983467173153   115.05592315    27.55539319
 H      7   2   1     0.960845096268   118.12194715   152.42795409
 O      6   4   2     1.732300176454   175.39802061    47.50258676
 H     10   6   4     0.983573390273   118.82882445   286.30484109
 H     10   6   4     0.960321634417   122.62201669   150.87199364
 O      1   2   3     2.712988822083   118.34358293   215.99746256
 H     13   1   2     0.982711422586     2.93795740   107.23169663
 H     13   1   2     0.960509079824   108.18525969    89.10302709
 O     11  10   6     1.727542865455   178.43457674   331.71291368
 H     16  11  10     0.960848572220   118.12094875   152.29359891
 H     16  11  10     0.983461959443   115.05273456    27.42396104

---------------------------
INTERNAL COORDINATES (A.U.)
---------------------------
 O      0   0   0     0.000000000000     0.00000000     0.00000000
 H      1   0   0     1.858687863034     0.00000000     0.00000000
 H      1   2   0     1.814739974751   105.41217712     0.00000000
 O      2   1   3     7.134313394099   137.80610674   140.81571119
 H      4   2   1     1.815101781939   111.87821583   289.96800700
 H      4   2   1     1.857052986045    96.01764691    39.23297988
 O      2   1   3     3.264444804125   178.43945154   113.75138538
 H      7   2   1     1.858483618961   115.05592315    27.55539319
 H      7   2   1     1.815734089067   118.12194715   152.42795409
 O      6   4   2     3.273572915241   175.39802061    47.50258676
 H     10   6   4     1.858684340228   118.82882445   286.30484109
 H     10   6   4     1.814744889527   122.62201669   150.87199364
 O      1   2   3     5.126805878126   118.34358293   215.99746256
 H     13   1   2     1.857055457364     2.93795740   107.23169663
 H     13   1   2     1.815099110012   108.18525969    89.10302709
 O     11  10   6     3.264582900320   178.43457674   331.71291368
 H     16  11  10     1.815740657664   118.12094875   152.29359891
 H     16  11  10     1.858473766477   115.05273456    27.42396104

---------------------
BASIS SET INFORMATION
---------------------
There are 2 groups of distinct atoms

 Group   1 Type O   : 19s6p3d2f contracted to 5s4p3d2f pattern {88111/3111/111/11}
 Group   2 Type H   : 6s3p2d contracted to 4s3p2d pattern {3111/111/11}

Atom   0O    basis set group =>   1
Atom   1H    basis set group =>   2
Atom   2H    basis set group =>   2
Atom   3O    basis set group =>   1
Atom   4H    basis set group =>   2
Atom   5H    basis set group =>   2
Atom   6O    basis set group =>   1
Atom   7H    basis set group =>   2
Atom   8H    basis set group =>   2
Atom   9O    basis set group =>   1
Atom  10H    basis set group =>   2
Atom  11H    basis set group =>   2
Atom  12O    basis set group =>   1
Atom  13H    basis set group =>   2
Atom  14H    basis set group =>   2
Atom  15O    basis set group =>   1
Atom  16H    basis set group =>   2
Atom  17H    basis set group =>   2
---------------------------------
AUXILIARY/J BASIS SET INFORMATION
---------------------------------
There are 2 groups of distinct atoms

 Group   1 Type O   : 16s14p13d7f5g3h2i contracted to 16s14p13d7f5g3h2i pattern {1111111111111111/11111111111111/1111111111111/1111111/11111/111/11}
 Group   2 Type H   : 14s6p5d4f3g contracted to 14s6p5d4f3g pattern {11111111111111/111111/11111/1111/111}

Atom   0O    basis set group =>   1
Atom   1H    basis set group =>   2
Atom   2H    basis set group =>   2
Atom   3O    basis set group =>   1
Atom   4H    basis set group =>   2
Atom   5H    basis set group =>   2
Atom   6O    basis set group =>   1
Atom   7H    basis set group =>   2
Atom   8H    basis set group =>   2
Atom   9O    basis set group =>   1
Atom  10H    basis set group =>   2
Atom  11H    basis set group =>   2
Atom  12O    basis set group =>   1
Atom  13H    basis set group =>   2
Atom  14H    basis set group =>   2
Atom  15O    basis set group =>   1
Atom  16H    basis set group =>   2
Atom  17H    basis set group =>   2
---------------------------------
AUXILIARY/C BASIS SET INFORMATION
---------------------------------
There are 2 groups of distinct atoms

 Group   1 Type O   : 16s14p13d7f5g3h2i contracted to 16s14p13d7f5g3h2i pattern {1111111111111111/11111111111111/1111111111111/1111111/11111/111/11}
 Group   2 Type H   : 14s6p5d4f3g contracted to 14s6p5d4f3g pattern {11111111111111/111111/11111/1111/111}

Atom   0O    basis set group =>   1
Atom   1H    basis set group =>   2
Atom   2H    basis set group =>   2
Atom   3O    basis set group =>   1
Atom   4H    basis set group =>   2
Atom   5H    basis set group =>   2
Atom   6O    basis set group =>   1
Atom   7H    basis set group =>   2
Atom   8H    basis set group =>   2
Atom   9O    basis set group =>   1
Atom  10H    basis set group =>   2
Atom  11H    basis set group =>   2
Atom  12O    basis set group =>   1
Atom  13H    basis set group =>   2
Atom  14H    basis set group =>   2
Atom  15O    basis set group =>   1
Atom  16H    basis set group =>   2
Atom  17H    basis set group =>   2

Checking for AutoStart:
The File: W.gbw exists
Trying to determine its content:
     ... Fine, the file contains calculation information
     ... Fine, the calculation information was read
     ... Fine, the file contains a basis set
     ... Fine, the basis set was read
     ... Fine, the file contains a geometry
     ... Fine, the geometry was read
     ... Fine, the file contains a set of orbitals
     ... Fine, the orbitals can be read
     => possible old guess file was deleted
     => GBW file was renamed to GES file
     => GES file is set as startup file
     => Guess is set to MORead
     ... now leaving AutoStart



           ************************************************************
           *        Program running with 16 parallel MPI-processes    *
           *              working on a common directory               *
           ************************************************************
------------------------------------------------------------------------------
                           ORCA GTO INTEGRAL CALCULATION
                           -- RI-GTO INTEGRALS CHOSEN --
------------------------------------------------------------------------------
------------------------------------------------------------------------------
                   ___                                                        
                  /   \      - P O W E R E D   B Y -                         
                 /     \                                                     
                 |  |  |   _    _      __       _____    __    __             
                 |  |  |  | |  | |    /  \     |  _  \  |  |  /  |          
                  \  \/   | |  | |   /    \    | | | |  |  | /  /          
                 / \  \   | |__| |  /  /\  \   | |_| |  |  |/  /          
                |  |  |   |  __  | /  /__\  \  |    /   |      \           
                |  |  |   | |  | | |   __   |  |    \   |  |\   \          
                \     /   | |  | | |  |  |  |  | |\  \  |  | \   \       
                 \___/    |_|  |_| |__|  |__|  |_| \__\ |__|  \__/        
                                                                              
                      - O R C A' S   B I G   F R I E N D -                    
                                      &                                       
                       - I N T E G R A L  F E E D E R -                       
                                                                              
 v1 FN, 2020, v2 2021                                                         
------------------------------------------------------------------------------


Reading SHARK input file W.SHARKINP.tmp ... ok
Calculating pre-screening integrals         ... done (  0.0 sec) Dimension = 228
Calculating pre-screening integrals (ORCA)  ... done (  0.1 sec) Dimension = 192
Organizing shell pair data                  ... done (  0.2 sec)
Shell pair information
Total number of shell pairs                 ...     26106
Shell pairs after pre-screening             ...     21487
Total number of primitive shell pairs       ...     35034
Primitive shell pairs kept                  ...     26406
          la=0 lb=0:   4879 shell pairs
          la=1 lb=0:   5711 shell pairs
          la=1 lb=1:   1688 shell pairs
          la=2 lb=0:   3882 shell pairs
          la=2 lb=1:   2307 shell pairs
          la=2 lb=2:    821 shell pairs
          la=3 lb=0:   1028 shell pairs
          la=3 lb=1:    656 shell pairs
          la=3 lb=2:    446 shell pairs
          la=3 lb=3:     69 shell pairs

Calculating one electron integrals          ... done (  0.0 sec)
Calculating RI/J V-Matrix + Cholesky decomp.... done (  3.2 sec)
Calculating RI/C V-Matrix + Cholesky decomp.... done (  3.3 sec)
Calculating Nuclear repulsion               ... done (  0.0 sec) ENN=    271.827576487821 Eh

SHARK setup successfully completed in   7.1 seconds

Maximum memory used throughout the entire GTOINT-calculation: 247.9 MB


           ************************************************************
           *        Program running with 16 parallel MPI-processes    *
           *              working on a common directory               *
           ************************************************************
-------------------------------------------------------------------------------
                                 ORCA SCF
-------------------------------------------------------------------------------

------------
SCF SETTINGS
------------
Hamiltonian:
 Ab initio Hamiltonian  Method          .... Hartree-Fock(GTOs)
 RI-approximation to the Coulomb term is turned on
   Number of AuxJ basis functions       .... 3000
   RIJ-COSX (HFX calculated with COS-X)).... on


General Settings:
 Integral files         IntName         .... W
 Hartree-Fock type      HFTyp           .... RHF
 Total Charge           Charge          ....    0
 Multiplicity           Mult            ....    1
 Number of Electrons    NEL             ....   60
 Basis Dimension        Dim             ....  552
 Nuclear Repulsion      ENuc            ....    271.8275764878 Eh

Convergence Acceleration:
 DIIS                   CNVDIIS         .... on
   Start iteration      DIISMaxIt       ....    12
   Startup error        DIISStart       ....  0.200000
   # of expansion vecs  DIISMaxEq       ....     5
   Bias factor          DIISBfac        ....   1.050
   Max. coefficient     DIISMaxC        ....  10.000
 Trust-Rad. Augm. Hess. CNVTRAH         .... auto
   Auto Start mean grad. ratio tolernc. ....  1.125000
   Auto Start start iteration           ....     1
   Auto Start num. interpolation iter.  ....    10
   Max. Number of Micro iterations      ....    24
   Max. Number of Macro iterations      .... Maxiter - #DIIS iter
   Max. Number of back steps            ....     5
   Number of Davidson start vectors     ....     2
   Converg. threshold I  (grad. norm)   ....   2.000e-06
   Converg. threshold II (energy diff.) ....   1.000e-09
   Grad. Scal. Fac. for Micro threshold ....   0.100
   Minimum threshold for Micro iter.    ....   1.000e-02
   NR start threshold (gradient norm)   ....   1.000e-04
   Initial trust radius                 ....   0.400
   Minimum AH scaling param. (alpha)    ....   1.000
   Maximum AH scaling param. (alpha)    .... 1000.000
   Inactive MOs                         .... canonicalized
   Orbital update algorithm             .... Taylor
   White noise on init. David. guess    .... on
   Maximum white noise                  ....   0.010
   Quad. conv. algorithm                .... NR
   Preconditioner                       .... approx. diagonal
 SOSCF                  CNVSOSCF        .... on
   Start iteration      SOSCFMaxIt      ....   150
   Startup grad/error   SOSCFStart      ....  0.003300
 Level Shifting         CNVShift        .... on
   Level shift para.    LevelShift      ....    0.2500
   Turn off err/grad.   ShiftErr        ....    0.0010
 Zerner damping         CNVZerner       .... off
 Static damping         CNVDamp         .... on
   Fraction old density DampFac         ....    0.7000
   Max. Damping (<1)    DampMax         ....    0.9800
   Min. Damping (>=0)   DampMin         ....    0.0000
   Turn off err/grad.   DampErr         ....    0.1000

SCF Procedure:
 Maximum # iterations   MaxIter         ....   999
 SCF integral mode      SCFMode         .... Direct
   Integral package                     .... SHARK and LIBINT hybrid scheme
 Reset frequency        DirectResetFreq ....    20
 Integral Threshold     Thresh          ....  1.000e-12 Eh
 Primitive CutOff       TCut            ....  1.000e-14 Eh

Convergence Tolerance:
 Convergence Check Mode ConvCheckMode   .... Total+1el-Energy
 Convergence forced     ConvForced      .... 1
 Energy Change          TolE            ....  1.000e-09 Eh
 1-El. energy change                    ....  1.000e-06 Eh
 Orbital Gradient       TolG            ....  2.000e-06
 Orbital Rotation angle TolX            ....  2.000e-06
 DIIS Error             TolErr          ....  1.000e-08


Diagonalization of the overlap matrix:
Smallest eigenvalue                        ... 9.470e-05
Time for diagonalization                   ...    0.042 sec
Threshold for overlap eigenvalues          ... 1.000e-08
Number of eigenvalues below threshold      ... 0
Time for construction of square roots      ...    0.033 sec
Total time needed                          ...    0.078 sec

---------------------
INITIAL GUESS: MOREAD
---------------------
Guess MOs are being read from file: W.ges
Input Geometry matches current geometry (good)
Input basis set matches current basis set (good)
MOs were renormalized
MOs were reorthogonalized (Cholesky)
                      ------------------
                      INITIAL GUESS DONE (   0.1 sec)
                      ------------------
--------------------
COSX GRID GENERATION
--------------------

GRIDX 1
-------
General Integration Accuracy     IntAcc      ... 4.020
Radial Grid Type                 RadialGrid  ... OptM3 with GC (2021)
Angular Grid (max. ang.)         AngularGrid ... 2 (Lebedev-110)
Angular grid pruning method      GridPruning ... 4 (adaptive)
Weight generation scheme         WeightScheme... Becke
Basis function cutoff            BFCut       ... 1.0000e-12
Integration weight cutoff        WCut        ... 1.0000e-14
Angular grids for H and He will be reduced by one unit
Partially contracted basis set               ... on
Rotationally invariant grid construction     ... off

Total number of grid points                  ...    23626
Total number of batches                      ...      379
Average number of points per batch           ...       62
Average number of grid points per atom       ...     1313
UseSFitting                                  ... on

GRIDX 2
-------
General Integration Accuracy     IntAcc      ... 4.338
Radial Grid Type                 RadialGrid  ... OptM3 with GC (2021)
Angular Grid (max. ang.)         AngularGrid ... 3 (Lebedev-194)
Angular grid pruning method      GridPruning ... 4 (adaptive)
Weight generation scheme         WeightScheme... Becke
Basis function cutoff            BFCut       ... 1.0000e-12
Integration weight cutoff        WCut        ... 1.0000e-14
Angular grids for H and He will be reduced by one unit
Partially contracted basis set               ... on
Rotationally invariant grid construction     ... off

Total number of grid points                  ...    53233
Total number of batches                      ...      841
Average number of points per batch           ...       63
Average number of grid points per atom       ...     2957
UseSFitting                                  ... on

GRIDX 3
-------
General Integration Accuracy     IntAcc      ... 4.871
Radial Grid Type                 RadialGrid  ... OptM3 with GC (2021)
Angular Grid (max. ang.)         AngularGrid ... 4 (Lebedev-302)
Angular grid pruning method      GridPruning ... 4 (adaptive)
Weight generation scheme         WeightScheme... Becke
Basis function cutoff            BFCut       ... 1.0000e-12
Integration weight cutoff        WCut        ... 1.0000e-14
Angular grids for H and He will be reduced by one unit
Partially contracted basis set               ... on
Rotationally invariant grid construction     ... off

Total number of grid points                  ...   103373
Total number of batches                      ...     1624
Average number of points per batch           ...       63
Average number of grid points per atom       ...     5743
UseSFitting                                  ... on

Time for X-Grid setup             =    1.120 sec

 re-compute Schwartz prescreening matrix in partially contracted basis (1) ...done (   0.055 sec)
--------------
SCF ITERATIONS
--------------
ITER       Energy         Delta-E        Max-DP      RMS-DP      [F,P]     Damp
               ***  Starting incremental Fock matrix formation  ***
  0   -456.4068842709   0.000000000000 0.01151470  0.00013518  0.0197174 0.7000
                      *** Initiating the SOSCF procedure ***
                      *** Re-Reading the Fockian *** 
                      *** Removing any level shift *** 
ITER       Energy         Delta-E        Max-DP      RMS-DP   
  1   -456.4071603877  -0.000276116789 0.02741467  0.00035150
               *** Restarting incremental Fock matrix formation ***
  2   -456.4081421811  -0.000981793436 0.00925930  0.00012430
  3   -456.4081478967  -0.000005715629 0.00081461  0.00000834
  4   -456.4081463606   0.000001536154 0.00008281  0.00000119
  5   -456.4081463489   0.000000011699 0.00003652  0.00000038
  6   -456.4081464490  -0.000000100083 0.00001595  0.00000018
  7   -456.4081464656  -0.000000016681 0.00000147  0.00000003
  8   -456.4081464629   0.000000002747 0.00000089  0.00000001
  9   -456.4081464622   0.000000000732 0.00000033  0.00000000
                 **** Energy Check signals convergence ****
              ***Rediagonalizing the Fockian in SOSCF/NRSCF***

               *****************************************************
               *                     SUCCESS                       *
               *           SCF CONVERGED AFTER  10 CYCLES          *
               *****************************************************

Old exchange energy                            =    -53.718711141 Eh
New exchange energy                            =    -53.718331061 Eh
Exchange energy change after final integration =      0.000380080 Eh
Total energy after final integration           =   -456.407766383 Eh
Final COS-X integration done in                =     7.872 sec

----------------
TOTAL SCF ENERGY
----------------

Total Energy       :         -456.40776638 Eh          -12419.48672 eV

Components:
Nuclear Repulsion  :          271.82757649 Eh            7396.80440 eV
Electronic Energy  :         -728.23534287 Eh          -19816.29112 eV
One Electron Energy:        -1172.16604431 Eh          -31896.25964 eV
Two Electron Energy:          443.93070144 Eh           12079.96852 eV
Max COSX asymmetry :            0.00000407 Eh               0.00011 eV

Virial components:
Potential Energy   :         -912.16540050 Eh          -24821.28244 eV
Kinetic Energy     :          455.75763411 Eh           12401.79572 eV
Virial Ratio       :            2.00142649


---------------
SCF CONVERGENCE
---------------

  Last Energy change         ...   -7.8023e-10  Tolerance :   1.0000e-09
  Last MAX-Density change    ...    2.6645e-15  Tolerance :   1.0000e-08
  Last RMS-Density change    ...    1.1055e-17  Tolerance :   1.0000e-09

             **** THE GBW FILE WAS UPDATED (W.gbw) ****
             **** DENSITY W.scfp WAS UPDATED ****
             **** ENERGY FILE WAS UPDATED (W.en.tmp) ****
             **** THE GBW FILE WAS UPDATED (W.gbw) ****
             **** DENSITY W.scfp WAS UPDATED ****
             **** ENERGY FILE WAS UPDATED (W.en.tmp) ****
----------------
ORBITAL ENERGIES
----------------

  NO   OCC          E(Eh)            E(eV) 
   0   2.0000     -20.554246      -559.3095 
   1   2.0000     -20.554140      -559.3066 
   2   2.0000     -20.553510      -559.2894 
   3   2.0000     -20.553340      -559.2848 
   4   2.0000     -20.552997      -559.2755 
   5   2.0000     -20.552884      -559.2724 
   6   2.0000      -1.357256       -36.9328 
   7   2.0000      -1.349797       -36.7298 
   8   2.0000      -1.349277       -36.7157 
   9   2.0000      -1.333916       -36.2977 
  10   2.0000      -1.332928       -36.2708 
  11   2.0000      -1.324936       -36.0533 
  12   2.0000      -0.717286       -19.5183 
  13   2.0000      -0.716990       -19.5103 
  14   2.0000      -0.715580       -19.4719 
  15   2.0000      -0.715332       -19.4652 
  16   2.0000      -0.712960       -19.4006 
  17   2.0000      -0.712619       -19.3913 
  18   2.0000      -0.622783       -16.9468 
  19   2.0000      -0.605112       -16.4659 
  20   2.0000      -0.601115       -16.3572 
  21   2.0000      -0.561965       -15.2919 
  22   2.0000      -0.557728       -15.1766 
  23   2.0000      -0.539809       -14.6889 
  24   2.0000      -0.505035       -13.7427 
  25   2.0000      -0.504097       -13.7172 
  26   2.0000      -0.500898       -13.6301 
  27   2.0000      -0.499687       -13.5972 
  28   2.0000      -0.498519       -13.5654 
  29   2.0000      -0.495959       -13.4957 
  30   0.0000       0.025299         0.6884 
  31   0.0000       0.036462         0.9922 
  32   0.0000       0.041919         1.1407 
  33   0.0000       0.042077         1.1450 
  34   0.0000       0.052484         1.4282 
  35   0.0000       0.057317         1.5597 
  36   0.0000       0.071821         1.9544 
  37   0.0000       0.074239         2.0202 
  38   0.0000       0.078772         2.1435 
  39   0.0000       0.088291         2.4025 
  40   0.0000       0.091151         2.4804 
  41   0.0000       0.093461         2.5432 
  42   0.0000       0.140167         3.8141 
  43   0.0000       0.154225         4.1967 
  44   0.0000       0.157265         4.2794 
  45   0.0000       0.159720         4.3462 
  46   0.0000       0.163993         4.4625 
  47   0.0000       0.169203         4.6042 
  48   0.0000       0.170862         4.6494 
  49   0.0000       0.177039         4.8175 
  50   0.0000       0.180197         4.9034 
  51   0.0000       0.180468         4.9108 
  52   0.0000       0.188669         5.1340 
  53   0.0000       0.202846         5.5197 
  54   0.0000       0.209958         5.7133 
  55   0.0000       0.216679         5.8961 
  56   0.0000       0.221839         6.0365 
  57   0.0000       0.225072         6.1245 
  58   0.0000       0.232372         6.3232 
  59   0.0000       0.237865         6.4726 
  60   0.0000       0.240589         6.5468 
  61   0.0000       0.242064         6.5869 
  62   0.0000       0.245751         6.6872 
  63   0.0000       0.246889         6.7182 
  64   0.0000       0.267359         7.2752 
  65   0.0000       0.271512         7.3882 
  66   0.0000       0.278433         7.5766 
  67   0.0000       0.294647         8.0178 
  68   0.0000       0.295697         8.0463 
  69   0.0000       0.299021         8.1368 
  70   0.0000       0.310398         8.4463 
  71   0.0000       0.318780         8.6744 
  72   0.0000       0.343215         9.3394 
  73   0.0000       0.352131         9.5820 
  74   0.0000       0.359010         9.7692 
  75   0.0000       0.359120         9.7722 
  76   0.0000       0.374985        10.2039 
  77   0.0000       0.379153        10.3173 
  78   0.0000       0.383473        10.4348 
  79   0.0000       0.390933        10.6378 
  80   0.0000       0.392639        10.6842 
  81   0.0000       0.401243        10.9184 
  82   0.0000       0.409837        11.1522 
  83   0.0000       0.410945        11.1824 
  84   0.0000       0.413921        11.2634 
  85   0.0000       0.416595        11.3361 
  86   0.0000       0.425750        11.5852 
  87   0.0000       0.426420        11.6035 
  88   0.0000       0.434300        11.8179 
  89   0.0000       0.438793        11.9402 
  90   0.0000       0.442885        12.0515 
  91   0.0000       0.451909        12.2971 
  92   0.0000       0.456895        12.4327 
  93   0.0000       0.458773        12.4839 
  94   0.0000       0.464432        12.6378 
  95   0.0000       0.468583        12.7508 
  96   0.0000       0.483635        13.1604 
  97   0.0000       0.486025        13.2254 
  98   0.0000       0.492112        13.3911 
  99   0.0000       0.492797        13.4097 
 100   0.0000       0.499407        13.5896 
 101   0.0000       0.503533        13.7018 
 102   0.0000       0.506075        13.7710 
 103   0.0000       0.512743        13.9525 
 104   0.0000       0.515013        14.0142 
 105   0.0000       0.516592        14.0572 
 106   0.0000       0.528533        14.3821 
 107   0.0000       0.541249        14.7281 
 108   0.0000       0.584094        15.8940 
 109   0.0000       0.585797        15.9403 
 110   0.0000       0.595088        16.1932 
 111   0.0000       0.595589        16.2068 
 112   0.0000       0.602785        16.4026 
 113   0.0000       0.625528        17.0215 
 114   0.0000       0.627019        17.0621 
 115   0.0000       0.679006        18.4767 
 116   0.0000       0.681616        18.5477 
 117   0.0000       0.685489        18.6531 
 118   0.0000       0.688066        18.7232 
 119   0.0000       0.704597        19.1731 
 120   0.0000       0.724349        19.7105 
 121   0.0000       0.732405        19.9297 
 122   0.0000       0.733510        19.9598 
 123   0.0000       0.746856        20.3230 
 124   0.0000       0.749259        20.3884 
 125   0.0000       0.752781        20.4842 
 126   0.0000       0.781503        21.2658 
 127   0.0000       0.787956        21.4414 
 128   0.0000       0.792010        21.5517 
 129   0.0000       0.794619        21.6227 
 130   0.0000       0.796145        21.6642 
 131   0.0000       0.798260        21.7218 
 132   0.0000       0.827967        22.5301 
 133   0.0000       0.833519        22.6812 
 134   0.0000       0.836018        22.7492 
 135   0.0000       0.848413        23.0865 
 136   0.0000       0.850400        23.1406 
 137   0.0000       0.854060        23.2402 
 138   0.0000       0.860282        23.4095 
 139   0.0000       0.879236        23.9252 
 140   0.0000       0.886611        24.1259 
 141   0.0000       0.893691        24.3186 
 142   0.0000       0.903572        24.5874 
 143   0.0000       0.904189        24.6042 
 144   0.0000       0.910587        24.7783 
 145   0.0000       0.912649        24.8345 
 146   0.0000       0.919238        25.0137 
 147   0.0000       0.920056        25.0360 
 148   0.0000       0.942603        25.6495 
 149   0.0000       0.955849        26.0100 
 150   0.0000       0.963783        26.2259 
 151   0.0000       0.965219        26.2649 
 152   0.0000       0.968908        26.3653 
 153   0.0000       0.972230        26.4557 
 154   0.0000       0.987215        26.8635 
 155   0.0000       0.989288        26.9199 
 156   0.0000       0.993796        27.0426 
 157   0.0000       0.994901        27.0726 
 158   0.0000       1.001255        27.2455 
 159   0.0000       1.004217        27.3261 
 160   0.0000       1.018492        27.7146 
 161   0.0000       1.020440        27.7676 
 162   0.0000       1.026086        27.9212 
 163   0.0000       1.035048        28.1651 
 164   0.0000       1.036451        28.2033 
 165   0.0000       1.044606        28.4252 
 166   0.0000       1.049607        28.5613 
 167   0.0000       1.051782        28.6204 
 168   0.0000       1.056489        28.7485 
 169   0.0000       1.062776        28.9196 
 170   0.0000       1.064286        28.9607 
 171   0.0000       1.068063        29.0635 
 172   0.0000       1.082478        29.4557 
 173   0.0000       1.084555        29.5122 
 174   0.0000       1.088564        29.6213 
 175   0.0000       1.096525        29.8380 
 176   0.0000       1.109893        30.2017 
 177   0.0000       1.114052        30.3149 
 178   0.0000       1.129166        30.7262 
 179   0.0000       1.136290        30.9200 
 180   0.0000       1.151342        31.3296 
 181   0.0000       1.177585        32.0437 
 182   0.0000       1.182509        32.1777 
 183   0.0000       1.185899        32.2700 
 184   0.0000       1.187927        32.3251 
 185   0.0000       1.203599        32.7516 
 186   0.0000       1.213181        33.0123 
 187   0.0000       1.216093        33.0916 
 188   0.0000       1.233828        33.5742 
 189   0.0000       1.234074        33.5809 
 190   0.0000       1.256130        34.1810 
 191   0.0000       1.257336        34.2138 
 192   0.0000       1.263261        34.3751 
 193   0.0000       1.271304        34.5939 
 194   0.0000       1.283204        34.9177 
 195   0.0000       1.286565        35.0092 
 196   0.0000       1.292474        35.1700 
 197   0.0000       1.298361        35.3302 
 198   0.0000       1.306937        35.5636 
 199   0.0000       1.313383        35.7390 
 200   0.0000       1.330807        36.2131 
 201   0.0000       1.338169        36.4134 
 202   0.0000       1.362086        37.0642 
 203   0.0000       1.363337        37.0983 
 204   0.0000       1.375693        37.4345 
 205   0.0000       1.384067        37.6624 
 206   0.0000       1.401098        38.1258 
 207   0.0000       1.402016        38.1508 
 208   0.0000       1.404577        38.2205 
 209   0.0000       1.413829        38.4723 
 210   0.0000       1.446852        39.3708 
 211   0.0000       1.477090        40.1937 
 212   0.0000       1.480419        40.2842 
 213   0.0000       1.481764        40.3209 
 214   0.0000       1.513597        41.1871 
 215   0.0000       1.519190        41.3393 
 216   0.0000       1.521099        41.3912 
 217   0.0000       1.530873        41.6572 
 218   0.0000       1.534949        41.7681 
 219   0.0000       1.546739        42.0889 
 220   0.0000       1.561460        42.4895 
 221   0.0000       1.567032        42.6411 
 222   0.0000       1.576902        42.9097 
 223   0.0000       1.577399        42.9232 
 224   0.0000       1.584596        43.1190 
 225   0.0000       1.589574        43.2545 
 226   0.0000       1.600678        43.5567 
 227   0.0000       1.614164        43.9236 
 228   0.0000       1.629904        44.3519 
 229   0.0000       1.640057        44.6282 
 230   0.0000       1.665983        45.3337 
 231   0.0000       1.668711        45.4079 
 232   0.0000       1.683966        45.8230 
 233   0.0000       1.689470        45.9728 
 234   0.0000       1.718652        46.7669 
 235   0.0000       1.748315        47.5741 
 236   0.0000       1.759030        47.8656 
 237   0.0000       1.766744        48.0755 
 238   0.0000       1.777990        48.3816 
 239   0.0000       1.778679        48.4003 
 240   0.0000       1.789205        48.6867 
 241   0.0000       1.797671        48.9171 
 242   0.0000       1.803554        49.0772 
 243   0.0000       1.817511        49.4570 
 244   0.0000       1.843140        50.1544 
 245   0.0000       1.844428        50.1894 
 246   0.0000       1.867370        50.8137 
 247   0.0000       1.867646        50.8212 
 248   0.0000       1.885487        51.3067 
 249   0.0000       1.893040        51.5122 
 250   0.0000       1.931584        52.5611 
 251   0.0000       1.931834        52.5679 
 252   0.0000       1.940371        52.8002 
 253   0.0000       1.941531        52.8318 
 254   0.0000       1.967575        53.5404 
 255   0.0000       1.984384        53.9978 
 256   0.0000       1.989376        54.1337 
 257   0.0000       1.999054        54.3970 
 258   0.0000       2.021922        55.0193 
 259   0.0000       2.032824        55.3160 
 260   0.0000       2.065455        56.2039 
 261   0.0000       2.072237        56.3884 
 262   0.0000       2.098533        57.1040 
 263   0.0000       2.100709        57.1632 
 264   0.0000       2.144291        58.3491 
 265   0.0000       2.157650        58.7126 
 266   0.0000       2.193992        59.7016 
 267   0.0000       2.194082        59.7040 
 268   0.0000       2.196448        59.7684 
 269   0.0000       2.259426        61.4821 
 270   0.0000       2.344086        63.7858 
 271   0.0000       2.358614        64.1811 
 272   0.0000       2.369216        64.4696 
 273   0.0000       2.390461        65.0478 
 274   0.0000       2.395817        65.1935 
 275   0.0000       2.404399        65.4270 
 276   0.0000       2.435846        66.2827 
 277   0.0000       2.437835        66.3369 
 278   0.0000       2.438796        66.3630 
 279   0.0000       2.471561        67.2546 
 280   0.0000       2.474990        67.3479 
 281   0.0000       2.489965        67.7554 
 282   0.0000       2.504123        68.1407 
 283   0.0000       2.516884        68.4879 
 284   0.0000       2.524052        68.6830 
 285   0.0000       2.524145        68.6855 
 286   0.0000       2.548242        69.3412 
 287   0.0000       2.552994        69.4705 
 288   0.0000       2.554720        69.5175 
 289   0.0000       2.564054        69.7715 
 290   0.0000       2.571138        69.9642 
 291   0.0000       2.579722        70.1978 
 292   0.0000       2.597275        70.6754 
 293   0.0000       2.616579        71.2007 
 294   0.0000       2.620025        71.2945 
 295   0.0000       2.621441        71.3330 
 296   0.0000       2.626315        71.4657 
 297   0.0000       2.632267        71.6276 
 298   0.0000       2.652809        72.1866 
 299   0.0000       2.660746        72.4026 
 300   0.0000       2.674440        72.7752 
 301   0.0000       2.691837        73.2486 
 302   0.0000       2.715012        73.8792 
 303   0.0000       2.718926        73.9857 
 304   0.0000       2.734350        74.4054 
 305   0.0000       2.748796        74.7985 
 306   0.0000       2.749448        74.8163 
 307   0.0000       2.757940        75.0474 
 308   0.0000       2.776681        75.5573 
 309   0.0000       2.784765        75.7773 
 310   0.0000       2.787568        75.8536 
 311   0.0000       2.805602        76.3443 
 312   0.0000       2.805821        76.3503 
 313   0.0000       2.823454        76.8301 
 314   0.0000       2.840746        77.3006 
 315   0.0000       2.848794        77.5196 
 316   0.0000       2.872277        78.1586 
 317   0.0000       2.887835        78.5820 
 318   0.0000       2.890504        78.6546 
 319   0.0000       2.903567        79.0101 
 320   0.0000       2.906869        79.0999 
 321   0.0000       2.912636        79.2569 
 322   0.0000       2.931668        79.7747 
 323   0.0000       2.942796        80.0776 
 324   0.0000       2.975609        80.9704 
 325   0.0000       2.982478        81.1574 
 326   0.0000       3.001991        81.6883 
 327   0.0000       3.025635        82.3317 
 328   0.0000       3.030559        82.4657 
 329   0.0000       3.034693        82.5782 
 330   0.0000       3.051224        83.0280 
 331   0.0000       3.070984        83.5657 
 332   0.0000       3.083008        83.8929 
 333   0.0000       3.101124        84.3859 
 334   0.0000       3.117076        84.8200 
 335   0.0000       3.129908        85.1691 
 336   0.0000       3.131046        85.2001 
 337   0.0000       3.158884        85.9576 
 338   0.0000       3.172817        86.3367 
 339   0.0000       3.180317        86.5408 
 340   0.0000       3.187277        86.7302 
 341   0.0000       3.203239        87.1646 
 342   0.0000       3.250530        88.4514 
 343   0.0000       3.262112        88.7666 
 344   0.0000       3.290979        89.5521 
 345   0.0000       3.315416        90.2171 
 346   0.0000       3.335843        90.7729 
 347   0.0000       3.371580        91.7454 
 348   0.0000       3.847186       104.6873 
 349   0.0000       3.870551       105.3230 
 350   0.0000       3.896613       106.0322 
 351   0.0000       3.897912       106.0676 
 352   0.0000       3.908246       106.3488 
 353   0.0000       3.927930       106.8844 
 354   0.0000       4.098581       111.5281 
 355   0.0000       4.118056       112.0580 
 356   0.0000       4.133947       112.4904 
 357   0.0000       4.134845       112.5148 
 358   0.0000       4.155741       113.0835 
 359   0.0000       4.161710       113.2459 
 360   0.0000       4.174517       113.5944 
 361   0.0000       4.177893       113.6863 
 362   0.0000       4.188395       113.9720 
 363   0.0000       4.191644       114.0604 
 364   0.0000       4.200950       114.3137 
 365   0.0000       4.211127       114.5906 
 366   0.0000       4.254161       115.7616 
 367   0.0000       4.270826       116.2151 
 368   0.0000       4.284714       116.5930 
 369   0.0000       4.291957       116.7901 
 370   0.0000       4.292522       116.8055 
 371   0.0000       4.298597       116.9708 
 372   0.0000       4.312051       117.3369 
 373   0.0000       4.314486       117.4031 
 374   0.0000       4.322414       117.6189 
 375   0.0000       4.336214       117.9944 
 376   0.0000       4.349371       118.3524 
 377   0.0000       4.379485       119.1718 
 378   0.0000       4.393609       119.5562 
 379   0.0000       4.397494       119.6619 
 380   0.0000       4.414472       120.1239 
 381   0.0000       4.435117       120.6857 
 382   0.0000       4.468670       121.5987 
 383   0.0000       4.478309       121.8610 
 384   0.0000       4.500788       122.4727 
 385   0.0000       4.532268       123.3293 
 386   0.0000       4.532605       123.3385 
 387   0.0000       4.545052       123.6771 
 388   0.0000       4.552990       123.8932 
 389   0.0000       4.554677       123.9391 
 390   0.0000       4.570219       124.3620 
 391   0.0000       4.575684       124.5107 
 392   0.0000       4.581152       124.6595 
 393   0.0000       4.595839       125.0591 
 394   0.0000       4.598576       125.1336 
 395   0.0000       4.628148       125.9383 
 396   0.0000       4.628882       125.9583 
 397   0.0000       4.633747       126.0907 
 398   0.0000       4.644356       126.3793 
 399   0.0000       4.657356       126.7331 
 400   0.0000       4.662028       126.8602 
 401   0.0000       4.691618       127.6654 
 402   0.0000       4.693322       127.7118 
 403   0.0000       4.694165       127.7347 
 404   0.0000       4.726616       128.6178 
 405   0.0000       4.733578       128.8072 
 406   0.0000       4.736468       128.8858 
 407   0.0000       4.740226       128.9881 
 408   0.0000       4.744373       129.1010 
 409   0.0000       4.774908       129.9319 
 410   0.0000       4.776503       129.9753 
 411   0.0000       4.784402       130.1902 
 412   0.0000       4.809250       130.8663 
 413   0.0000       4.831559       131.4734 
 414   0.0000       4.901795       133.3846 
 415   0.0000       4.906451       133.5113 
 416   0.0000       4.907779       133.5474 
 417   0.0000       4.921953       133.9332 
 418   0.0000       4.946808       134.6095 
 419   0.0000       4.978404       135.4693 
 420   0.0000       5.073570       138.0589 
 421   0.0000       5.089182       138.4837 
 422   0.0000       5.100411       138.7892 
 423   0.0000       5.104432       138.8986 
 424   0.0000       5.112655       139.1224 
 425   0.0000       5.117003       139.2407 
 426   0.0000       5.171362       140.7199 
 427   0.0000       5.196559       141.4056 
 428   0.0000       5.232399       142.3808 
 429   0.0000       5.238898       142.5577 
 430   0.0000       5.255895       143.0202 
 431   0.0000       5.262729       143.2061 
 432   0.0000       5.277867       143.6181 
 433   0.0000       5.293727       144.0496 
 434   0.0000       5.300751       144.2408 
 435   0.0000       5.331520       145.0780 
 436   0.0000       5.337886       145.2513 
 437   0.0000       5.357599       145.7877 
 438   0.0000       5.384713       146.5255 
 439   0.0000       5.389514       146.6561 
 440   0.0000       5.452885       148.3805 
 441   0.0000       5.460099       148.5768 
 442   0.0000       5.474653       148.9729 
 443   0.0000       5.483624       149.2170 
 444   0.0000       5.499601       149.6518 
 445   0.0000       5.525869       150.3665 
 446   0.0000       5.543710       150.8520 
 447   0.0000       5.583602       151.9375 
 448   0.0000       5.613687       152.7562 
 449   0.0000       5.622827       153.0049 
 450   0.0000       5.686895       154.7483 
 451   0.0000       5.687379       154.7615 
 452   0.0000       5.703459       155.1990 
 453   0.0000       5.705299       155.2491 
 454   0.0000       5.748966       156.4373 
 455   0.0000       5.753587       156.5631 
 456   0.0000       5.897220       160.4715 
 457   0.0000       5.913115       160.9041 
 458   0.0000       5.941184       161.6678 
 459   0.0000       5.985803       162.8820 
 460   0.0000       5.988626       162.9588 
 461   0.0000       6.013482       163.6352 
 462   0.0000       6.392383       173.9456 
 463   0.0000       6.393113       173.9654 
 464   0.0000       6.446763       175.4253 
 465   0.0000       6.453508       175.6089 
 466   0.0000       6.456397       175.6875 
 467   0.0000       6.475837       176.2165 
 468   0.0000       6.583732       179.1525 
 469   0.0000       6.590902       179.3476 
 470   0.0000       6.596463       179.4989 
 471   0.0000       6.607524       179.7999 
 472   0.0000       6.620699       180.1584 
 473   0.0000       6.625016       180.2758 
 474   0.0000       6.914692       188.1583 
 475   0.0000       6.934271       188.6911 
 476   0.0000       6.941013       188.8746 
 477   0.0000       6.948092       189.0672 
 478   0.0000       6.957610       189.3262 
 479   0.0000       6.980678       189.9539 
 480   0.0000       6.992394       190.2727 
 481   0.0000       7.011115       190.7821 
 482   0.0000       7.023372       191.1157 
 483   0.0000       7.059099       192.0878 
 484   0.0000       7.106762       193.3848 
 485   0.0000       7.115394       193.6197 
 486   0.0000       7.220347       196.4756 
 487   0.0000       7.232434       196.8045 
 488   0.0000       7.240782       197.0317 
 489   0.0000       7.249896       197.2797 
 490   0.0000       7.278959       198.0705 
 491   0.0000       7.280254       198.1058 
 492   0.0000       7.298953       198.6146 
 493   0.0000       7.332538       199.5285 
 494   0.0000       7.354194       200.1178 
 495   0.0000       7.358793       200.2429 
 496   0.0000       7.375554       200.6990 
 497   0.0000       7.376758       200.7318 
 498   0.0000       7.385992       200.9831 
 499   0.0000       7.392580       201.1623 
 500   0.0000       7.413330       201.7270 
 501   0.0000       7.422024       201.9635 
 502   0.0000       7.431234       202.2141 
 503   0.0000       7.476229       203.4385 
 504   0.0000       7.482609       203.6121 
 505   0.0000       7.483668       203.6409 
 506   0.0000       7.497890       204.0280 
 507   0.0000       7.510033       204.3584 
 508   0.0000       7.511314       204.3932 
 509   0.0000       7.519563       204.6177 
 510   0.0000       7.534310       205.0190 
 511   0.0000       7.541638       205.2184 
 512   0.0000       7.562684       205.7911 
 513   0.0000       7.573671       206.0901 
 514   0.0000       7.583895       206.3683 
 515   0.0000       7.638677       207.8590 
 516   0.0000       7.656690       208.3491 
 517   0.0000       7.674200       208.8256 
 518   0.0000       7.686997       209.1738 
 519   0.0000       7.701894       209.5792 
 520   0.0000       7.730357       210.3537 
 521   0.0000       7.746001       210.7794 
 522   0.0000       7.807158       212.4436 
 523   0.0000       7.872934       214.2334 
 524   0.0000       7.876623       214.3338 
 525   0.0000       7.886669       214.6072 
 526   0.0000       7.889845       214.6936 
 527   0.0000       7.898086       214.9178 
 528   0.0000       8.031544       218.5494 
 529   0.0000       8.036805       218.6926 
 530   0.0000       8.055363       219.1976 
 531   0.0000       8.066452       219.4993 
 532   0.0000       8.069557       219.5838 
 533   0.0000       8.070977       219.6225 
 534   0.0000       8.100176       220.4170 
 535   0.0000       8.110743       220.7045 
 536   0.0000       8.148543       221.7331 
 537   0.0000       8.203711       223.2343 
 538   0.0000       8.237983       224.1669 
 539   0.0000       8.285980       225.4730 
 540   0.0000       8.984215       244.4729 
 541   0.0000       8.985984       244.5211 
 542   0.0000       8.990647       244.6479 
 543   0.0000       9.018996       245.4194 
 544   0.0000       9.044574       246.1154 
 545   0.0000       9.049327       246.2447 
 546   0.0000      16.259341       442.4392 
 547   0.0000      16.677727       453.8240 
 548   0.0000      16.829285       457.9481 
 549   0.0000      17.447539       474.7717 
 550   0.0000      17.560788       477.8533 
 551   0.0000      17.976192       489.1571 

--------------------
FRAGMENT INFORMATION
--------------------
Fragment  1:    0   1   2 
Fragment  2:    3   4   5 
Fragment  3:    6   7   8 
Fragment  4:    9  10  11 
Fragment  5:   12  13  14 
Fragment  6:   15  16  17 


                    ********************************
                    * MULLIKEN POPULATION ANALYSIS *
                    ********************************

-------------------------
MULLIKEN FRAGMENT CHARGES
-------------------------
 Fragment   0 :  -0.008294
 Fragment   1 :  -0.009584
 Fragment   2 :   0.013630
 Fragment   3 :  -0.000960
 Fragment   4 :  -0.003584
 Fragment   5 :   0.008791
Sum of fragment charges:   -0.0000000

---------------------------------
MULLIKEN FRAGMENT OVERLAP CHARGES
---------------------------------
                  0          1          2          3          4          5    
      0      11.207886   0.010189  -0.127595  -0.000217  -0.132414   0.000944
      1       0.010189  11.189790  -0.141076  -0.122008  -0.004805   0.003476
      2      -0.127595  -0.141076  11.176363   0.000397   0.005063   0.000041
      3      -0.000217  -0.122008   0.000397  11.214398   0.009692  -0.129837
      4      -0.132414  -0.004805   0.005063   0.009692  11.211430  -0.140112
      5       0.000944   0.003476   0.000041  -0.129837  -0.140112  11.193009

-----------------------
MULLIKEN ATOMIC CHARGES
-----------------------
   0 O :   -0.500261
   1 H :    0.315932
   2 H :    0.176035
   3 O :   -0.498979
   4 H :    0.183833
   5 H :    0.305562
   6 O :   -0.478487
   7 H :    0.315380
   8 H :    0.176737
   9 O :   -0.487519
  10 H :    0.316878
  11 H :    0.169681
  12 O :   -0.487254
  13 H :    0.297943
  14 H :    0.185727
  15 O :   -0.481810
  16 H :    0.182685
  17 H :    0.307916
Sum of atomic charges:   -0.0000000

--------------------------------
MULLIKEN REDUCED ORBITAL CHARGES
--------------------------------
  0 O s       :     3.879935  s :     3.879935
      pz      :     1.749262  p :     4.603912
      px      :     1.277775
      py      :     1.576876
      dz2     :    -0.000821  d :     0.015865
      dxz     :     0.001766
      dyz     :     0.003074
      dx2y2   :     0.001681
      dxy     :     0.010165
      f0      :     0.000228  f :     0.000549
      f+1     :     0.000108
      f-1     :    -0.000072
      f+2     :     0.000041
      f-2     :     0.000147
      f+3     :    -0.000026
      f-3     :     0.000124
  1 H s       :     0.556080  s :     0.556080
      pz      :     0.043571  p :     0.071285
      px      :     0.013982
      py      :     0.013732
      dz2     :     0.014987  d :     0.056703
      dxz     :     0.012391
      dyz     :     0.008166
      dx2y2   :     0.011983
      dxy     :     0.009175
  2 H s       :     0.699013  s :     0.699013
      pz      :     0.046694  p :     0.105800
      px      :     0.030843
      py      :     0.028263
      dz2     :     0.000365  d :     0.019152
      dxz     :     0.008195
      dyz     :     0.002357
      dx2y2   :     0.004346
      dxy     :     0.003889
  3 O s       :     3.890539  s :     3.890539
      pz      :     1.464469  p :     4.592980
      px      :     1.774140
      py      :     1.354370
      dz2     :     0.004094  d :     0.014999
      dxz     :     0.000204
      dyz     :     0.007400
      dx2y2   :    -0.000877
      dxy     :     0.004177
      f0      :    -0.000032  f :     0.000462
      f+1     :     0.000135
      f-1     :     0.000174
      f+2     :    -0.000228
      f-2     :     0.000261
      f+3     :     0.000068
      f-3     :     0.000084
  4 H s       :     0.692908  s :     0.692908
      pz      :     0.021850  p :     0.104162
      px      :     0.050079
      py      :     0.032233
      dz2     :     0.005562  d :     0.019096
      dxz     :     0.006566
      dyz     :     0.000721
      dx2y2   :     0.002335
      dxy     :     0.003912
  5 H s       :     0.572148  s :     0.572148
      pz      :     0.022166  p :     0.067053
      px      :     0.050693
      py      :    -0.005805
      dz2     :     0.002497  d :     0.055237
      dxz     :     0.002703
      dyz     :     0.015020
      dx2y2   :     0.014132
      dxy     :     0.020885
  6 O s       :     3.869425  s :     3.869425
      pz      :     1.270611  p :     4.592782
      px      :     1.492277
      py      :     1.829894
      dz2     :     0.005141  d :     0.015764
      dxz     :     0.005133
      dyz     :    -0.000206
      dx2y2   :     0.007290
      dxy     :    -0.001594
      f0      :     0.000084  f :     0.000515
      f+1     :     0.000175
      f-1     :     0.000081
      f+2     :     0.000108
      f-2     :    -0.000180
      f+3     :     0.000301
      f-3     :    -0.000055
  7 H s       :     0.567613  s :     0.567613
      pz      :     0.017033  p :     0.061138
      px      :    -0.005520
      py      :     0.049624
      dz2     :     0.008637  d :     0.055869
      dxz     :     0.013106
      dyz     :     0.005711
      dx2y2   :     0.005684
      dxy     :     0.022732
  8 H s       :     0.695213  s :     0.695213
      pz      :     0.027728  p :     0.108491
      px      :     0.033001
      py      :     0.047761
      dz2     :     0.001530  d :     0.019559
      dxz     :     0.007937
      dyz     :     0.009535
      dx2y2   :     0.000257
      dxy     :     0.000299
  9 O s       :     3.869809  s :     3.869809
      pz      :     1.689045  p :     4.601193
      px      :     1.269124
      py      :     1.643023
      dz2     :     0.000681  d :     0.015969
      dxz     :     0.006276
      dyz     :     0.003972
      dx2y2   :    -0.001208
      dxy     :     0.006248
      f0      :     0.000234  f :     0.000548
      f+1     :     0.000067
      f-1     :    -0.000004
      f+2     :     0.000079
      f-2     :     0.000346
      f+3     :    -0.000155
      f-3     :    -0.000020
 10 H s       :     0.563696  s :     0.563696
      pz      :     0.026409  p :     0.061942
      px      :     0.006271
      py      :     0.029262
      dz2     :     0.010591  d :     0.057484
      dxz     :     0.011070
      dyz     :     0.004218
      dx2y2   :     0.020228
      dxy     :     0.011377
 11 H s       :     0.703152  s :     0.703152
      pz      :     0.035079  p :     0.107722
      px      :     0.031202
      py      :     0.041441
      dz2     :     0.003850  d :     0.019445
      dxz     :     0.004605
      dyz     :     0.001013
      dx2y2   :     0.001852
      dxy     :     0.008125
 12 O s       :     3.879018  s :     3.879018
      pz      :     1.267670  p :     4.592234
      px      :     1.774849
      py      :     1.549715
      dz2     :    -0.000706  d :     0.015551
      dxz     :     0.002547
      dyz     :     0.012279
      dx2y2   :    -0.000303
      dxy     :     0.001733
      f0      :    -0.000023  f :     0.000451
      f+1     :    -0.000020
      f-1     :     0.000021
      f+2     :     0.000173
      f-2     :     0.000300
      f+3     :     0.000162
      f-3     :    -0.000162
 13 H s       :     0.578652  s :     0.578652
      pz      :     0.005299  p :     0.068544
      px      :     0.049603
      py      :     0.013642
      dz2     :     0.012060  d :     0.054861
      dxz     :     0.014246
      dyz     :     0.012258
      dx2y2   :     0.007663
      dxy     :     0.008634
 14 H s       :     0.690622  s :     0.690622
      pz      :     0.027875  p :     0.104476
      px      :     0.050003
      py      :     0.026598
      dz2     :     0.003962  d :     0.019175
      dxz     :     0.007785
      dyz     :     0.003378
      dx2y2   :     0.001250
      dxy     :     0.002800
 15 O s       :     3.868898  s :     3.868898
      pz      :     1.711449  p :     4.596420
      px      :     1.496348
      py      :     1.388622
      dz2     :     0.003987  d :     0.015996
      dxz     :     0.000697
      dyz     :    -0.000101
      dx2y2   :     0.007941
      dxy     :     0.003473
      f0      :     0.000252  f :     0.000495
      f+1     :     0.000202
      f-1     :     0.000073
      f+2     :     0.000132
      f-2     :    -0.000054
      f+3     :     0.000148
      f-3     :    -0.000257
 16 H s       :     0.690660  s :     0.690660
      pz      :     0.037827  p :     0.107202
      px      :     0.033303
      py      :     0.036072
      dz2     :     0.005859  d :     0.019452
      dxz     :     0.001616
      dyz     :     0.002857
      dx2y2   :     0.002413
      dxy     :     0.006708
 17 H s       :     0.575367  s :     0.575367
      pz      :     0.047325  p :     0.059653
      px      :    -0.006450
      py      :     0.018778
      dz2     :     0.004253  d :     0.057064
      dxz     :     0.020214
      dyz     :     0.006086
      dx2y2   :     0.010625
      dxy     :     0.015887


                     *******************************
                     * LOEWDIN POPULATION ANALYSIS *
                     *******************************

------------------------
LOEWDIN FRAGMENT CHARGES
------------------------
 Fragment   0 :  -0.000829
 Fragment   1 :  -0.002138
 Fragment   2 :   0.002677
 Fragment   3 :  -0.000384
 Fragment   4 :  -0.001983
 Fragment   5 :   0.002657

----------------------------
LOEWDIN FRAGMENT BOND ORDERS
----------------------------
                  0          1          2          3          4          5    
      0      17.413785   0.008442   0.737885   0.000673   0.730802   0.008294
      1       0.008442  17.417310   0.732025   0.731313   0.001170   0.007564
      2       0.737885   0.732025  17.399807   0.008297   0.007575   0.000683
      3       0.000673   0.731313   0.008297  17.412915   0.008448   0.737663
      4       0.730802   0.001170   0.007575   0.008448  17.417576   0.731939
      5       0.008294   0.007564   0.000683   0.737663   0.731939  17.399910

----------------------
LOEWDIN ATOMIC CHARGES
----------------------
   0 O :    1.120597
   1 H :   -0.672546
   2 H :   -0.448880
   3 O :    1.119586
   4 H :   -0.448815
   5 H :   -0.672909
   6 O :    1.118845
   7 H :   -0.670126
   8 H :   -0.446041
   9 O :    1.120900
  10 H :   -0.672323
  11 H :   -0.448960
  12 O :    1.119745
  13 H :   -0.672941
  14 H :   -0.448787
  15 O :    1.118766
  16 H :   -0.446074
  17 H :   -0.670036

-------------------------------
LOEWDIN REDUCED ORBITAL CHARGES
-------------------------------
  0 O s       :     2.944429  s :     2.944429
      pz      :     1.343305  p :     3.814704
      px      :     1.159110
      py      :     1.312289
      dz2     :     0.014149  d :     0.102524
      dxz     :     0.015417
      dyz     :     0.020955
      dx2y2   :     0.012721
      dxy     :     0.039282
      f0      :     0.001280  f :     0.017746
      f+1     :     0.002727
      f-1     :     0.002301
      f+2     :     0.000654
      f-2     :     0.004127
      f+3     :     0.001450
      f-3     :     0.005208
  1 H s       :     0.530908  s :     0.530908
      pz      :     0.183361  p :     0.620361
      px      :     0.214065
      py      :     0.222935
      dz2     :     0.087388  d :     0.521277
      dxz     :     0.093781
      dyz     :     0.088130
      dx2y2   :     0.130916
      dxy     :     0.121062
  2 H s       :     0.579255  s :     0.579255
      pz      :     0.148729  p :     0.520625
      px      :     0.200126
      py      :     0.171770
      dz2     :     0.029968  d :     0.348999
      dxz     :     0.090217
      dyz     :     0.025440
      dx2y2   :     0.105653
      dxy     :     0.097721
  3 O s       :     2.944640  s :     2.944640
      pz      :     1.273705  p :     3.815851
      px      :     1.350193
      py      :     1.191953
      dz2     :     0.016629  d :     0.101987
      dxz     :     0.012928
      dyz     :     0.032275
      dx2y2   :     0.025862
      dxy     :     0.014293
      f0      :     0.001882  f :     0.017935
      f+1     :     0.000845
      f-1     :     0.005148
      f+2     :     0.003733
      f-2     :     0.001598
      f+3     :     0.003621
      f-3     :     0.001109
  4 H s       :     0.578450  s :     0.578450
      pz      :     0.215261  p :     0.521169
      px      :     0.150543
      py      :     0.155366
      dz2     :     0.111502  d :     0.349195
      dxz     :     0.073722
      dyz     :     0.082304
      dx2y2   :     0.042983
      dxy     :     0.038685
  5 H s       :     0.532140  s :     0.532140
      pz      :     0.145751  p :     0.619080
      px      :     0.161454
      py      :     0.311876
      dz2     :     0.054893  d :     0.521689
      dxz     :     0.024573
      dyz     :     0.151592
      dx2y2   :     0.151671
      dxy     :     0.138960
  6 O s       :     2.944611  s :     2.944611
      pz      :     1.161950  p :     3.816700
      px      :     1.268137
      py      :     1.386613
      dz2     :     0.038671  d :     0.101823
      dxz     :     0.025739
      dyz     :     0.007059
      dx2y2   :     0.017270
      dxy     :     0.013083
      f0      :     0.006862  f :     0.018021
      f+1     :     0.002113
      f-1     :     0.000847
      f+2     :     0.003013
      f-2     :     0.001641
      f+3     :     0.002718
      f-3     :     0.000827
  7 H s       :     0.530220  s :     0.530220
      pz      :     0.158693  p :     0.618711
      px      :     0.316762
      py      :     0.143256
      dz2     :     0.092253  d :     0.521195
      dxz     :     0.143949
      dyz     :     0.025998
      dx2y2   :     0.131321
      dxy     :     0.127674
  8 H s       :     0.576617  s :     0.576617
      pz      :     0.224394  p :     0.519733
      px      :     0.136319
      py      :     0.159020
      dz2     :     0.110814  d :     0.349691
      dxz     :     0.118736
      dyz     :     0.111409
      dx2y2   :     0.003335
      dxy     :     0.005397
  9 O s       :     2.944211  s :     2.944211
      pz      :     1.352631  p :     3.814679
      px      :     1.156408
      py      :     1.305641
      dz2     :     0.010536  d :     0.102461
      dxz     :     0.023262
      dyz     :     0.010541
      dx2y2   :     0.027647
      dxy     :     0.030474
      f0      :     0.002065  f :     0.017748
      f+1     :     0.000133
      f-1     :     0.000899
      f+2     :     0.003686
      f-2     :     0.004226
      f+3     :     0.003932
      f-3     :     0.002807
 10 H s       :     0.530904  s :     0.530904
      pz      :     0.182071  p :     0.620169
      px      :     0.213829
      py      :     0.224269
      dz2     :     0.080103  d :     0.521250
      dxz     :     0.091677
      dyz     :     0.092954
      dx2y2   :     0.134051
      dxy     :     0.122465
 11 H s       :     0.579242  s :     0.579242
      pz      :     0.175525  p :     0.520734
      px      :     0.201277
      py      :     0.143932
      dz2     :     0.060644  d :     0.348984
      dxz     :     0.096592
      dyz     :     0.021639
      dx2y2   :     0.076538
      dxy     :     0.093571
 12 O s       :     2.944666  s :     2.944666
      pz      :     1.153017  p :     3.815690
      px      :     1.350881
      py      :     1.311791
      dz2     :     0.021456  d :     0.101972
      dxz     :     0.013081
      dyz     :     0.041936
      dx2y2   :     0.010969
      dxy     :     0.014529
      f0      :     0.000763  f :     0.017927
      f+1     :     0.001872
      f-1     :     0.006526
      f+2     :     0.003065
      f-2     :     0.003016
      f+3     :     0.000883
      f-3     :     0.001802
 13 H s       :     0.532155  s :     0.532155
      pz      :     0.247253  p :     0.618931
      px      :     0.162871
      py      :     0.208807
      dz2     :     0.150531  d :     0.521856
      dxz     :     0.100409
      dyz     :     0.136742
      dx2y2   :     0.069467
      dxy     :     0.064707
 14 H s       :     0.578414  s :     0.578414
      pz      :     0.191997  p :     0.521099
      px      :     0.150065
      py      :     0.179037
      dz2     :     0.109897  d :     0.349275
      dxz     :     0.080602
      dyz     :     0.093080
      dx2y2   :     0.033462
      dxy     :     0.032233
 15 O s       :     2.944652  s :     2.944652
      pz      :     1.343575  p :     3.816769
      px      :     1.270526
      py      :     1.202668
      dz2     :     0.009205  d :     0.101803
      dxz     :     0.011556
      dyz     :     0.021857
      dx2y2   :     0.029895
      dxy     :     0.029291
      f0      :     0.002491  f :     0.018009
      f+1     :     0.001462
      f-1     :     0.000615
      f+2     :     0.003087
      f-2     :     0.002511
      f+3     :     0.002622
      f-3     :     0.005222
 16 H s       :     0.576582  s :     0.576582
      pz      :     0.178125  p :     0.519816
      px      :     0.137837
      py      :     0.203855
      dz2     :     0.062185  d :     0.349675
      dxz     :     0.031625
      dyz     :     0.094891
      dx2y2   :     0.068056
      dxy     :     0.092919
 17 H s       :     0.530255  s :     0.530255
      pz      :     0.145552  p :     0.618599
      px      :     0.312816
      py      :     0.160230
      dz2     :     0.058061  d :     0.521182
      dxz     :     0.126181
      dyz     :     0.035431
      dx2y2   :     0.159231
      dxy     :     0.142279


                      *****************************
                      * MAYER POPULATION ANALYSIS *
                      *****************************

  NA   - Mulliken gross atomic population
  ZA   - Total nuclear charge
  QA   - Mulliken gross atomic charge
  VA   - Mayer's total valence
  BVA  - Mayer's bonded valence
  FA   - Mayer's free valence

  ATOM       NA         ZA         QA         VA         BVA        FA
  0 O      8.5003     8.0000    -0.5003     1.8626     1.8626     0.0000
  1 H      0.6841     1.0000     0.3159     0.9803     0.9803     0.0000
  2 H      0.8240     1.0000     0.1760     1.0846     1.0846     0.0000
  3 O      8.4990     8.0000    -0.4990     1.8569     1.8569     0.0000
  4 H      0.8162     1.0000     0.1838     1.0726     1.0726    -0.0000
  5 H      0.6944     1.0000     0.3056     0.9874     0.9874     0.0000
  6 O      8.4785     8.0000    -0.4785     1.8664     1.8664     0.0000
[...]
                   -0.006140196               -0.002562427     -0.000072252     -0.002857575     -0.000647942 
                                                 ( 41.35%)        (  1.17%)        ( 46.11%)        ( 10.46%)
----------------------------------------------------------------------------------------------------------------------------------------------------------

Overall summary of excitation mechanisms for this fragment pair:
  Total local dipole excitations    (i->a(i))(j->b(j)) -0.002562427 (41.349 per cent)
  Total Cross excitations           (i->a(j))(j->b(i)) -0.000072252 ( 1.166 per cent)
  Total Charge transfer excitations (i->a(i))(j->b(i)) -0.002857575 (46.112 per cent)
  Total Charge transfer excitations (i->a(j))(j->b(j)) -0.000647942 (10.456 per cent)
                                                       -----------------------------
  Sum                                                  -0.006140196
  Consistency check                                    -0.006197020
 done 
 
 
Summary Strong Pairs Energy Decomposition    
 
Intra fragment contributions: 
INTRA Fragment 1                       -0.258099792 
INTRA Fragment 2                       -0.257527012 
INTRA Fragment 3                       -0.257751784 
INTRA Fragment 4                       -0.258216757 
INTRA Fragment 5                       -0.257497200 
INTRA Fragment 6                       -0.257863063 

Charge transfer contributions: 
Charge Transfer 1 to 2                 -0.000000042 
Charge Transfer 1 to 3                 -0.001410923 
Charge Transfer 1 to 4                  0.000000000 
Charge Transfer 1 to 5                 -0.014315998 
Charge Transfer 1 to 6                 -0.000001892 
Charge Transfer 2 to 1                 -0.000001685 
Charge Transfer 2 to 3                 -0.015295363 
Charge Transfer 2 to 4                 -0.001037893 
Charge Transfer 2 to 5                  0.000000000 
Charge Transfer 2 to 6                 -0.000000028 
Charge Transfer 3 to 1                 -0.015258544 
Charge Transfer 3 to 2                 -0.000910358 
Charge Transfer 3 to 4                 -0.000000044 
Charge Transfer 3 to 5                 -0.000002344 
Charge Transfer 3 to 6                  0.000000000 
Charge Transfer 4 to 1                  0.000000000 
Charge Transfer 4 to 2                 -0.014211942 
Charge Transfer 4 to 3                 -0.000001887 
Charge Transfer 4 to 5                 -0.000000042 
Charge Transfer 4 to 6                 -0.001380391 
Charge Transfer 5 to 1                 -0.001048551 
Charge Transfer 5 to 2                  0.000000000 
Charge Transfer 5 to 3                 -0.000000029 
Charge Transfer 5 to 4                 -0.000001693 
Charge Transfer 5 to 6                 -0.015310252 
Charge Transfer 6 to 1                 -0.000000044 
Charge Transfer 6 to 2                 -0.000002331 
Charge Transfer 6 to 3                  0.000000000 
Charge Transfer 6 to 4                 -0.015129952 
Charge Transfer 6 to 5                 -0.000897709 

Dispersion contributions: 
Dispersion  2,1                        -0.000037337 
Dispersion  3,1                        -0.002629370 
Dispersion  3,2                        -0.002635939 
Dispersion  4,1                         0.000000000 
Dispersion  4,2                        -0.002606786 
Dispersion  4,3                        -0.000049443 
Dispersion  5,1                        -0.002590218 
Dispersion  5,2                         0.000000000 
Dispersion  5,3                        -0.000031006 
Dispersion  5,4                        -0.000037306 
Dispersion  6,1                        -0.000049423 
Dispersion  6,2                        -0.000030988 
Dispersion  6,3                         0.000000000 
Dispersion  6,4                        -0.002665925 
Dispersion  6,5                        -0.002634679 

Singles contributions:                   
Singles energy                         -0.000019991 
 
Delocalized contributions: 
Delocalized correlation                -0.000635527 
 

------------------------------------------------- 
FINAL SUMMARY DLPNO-CCSD ENERGY DECOMPOSITION (Eh)
------------------------------------------------- 
 
Intrafragment REF. energy:                   
Intra fragment   1 (REF.)              -75.983608952     
Intra fragment   2 (REF.)              -75.983509735     
Intra fragment   3 (REF.)              -75.981851491     
Intra fragment   4 (REF.)              -75.983598931     
Intra fragment   5 (REF.)              -75.983544331     
Intra fragment   6 (REF.)              -75.981875841     

Interaction of fragments  2 and  1:  
Electrostatics (REF.)                  -0.003448660 
Exchange (REF.)                        -0.000027872 
Dispersion (strong pairs)              -0.000037337 
Dispersion (weak pairs)                -0.000088685 

Interaction of fragments  3 and  1:  
Electrostatics (REF.)                  -0.071393282 
Exchange (REF.)                        -0.011163078 
Dispersion (strong pairs)              -0.002629370 
Dispersion (weak pairs)                -0.000089288 

Interaction of fragments  3 and  2:  
Electrostatics (REF.)                  -0.070151497 
Exchange (REF.)                        -0.011055286 
Dispersion (strong pairs)              -0.002635939 
Dispersion (weak pairs)                -0.000089166 

Interaction of fragments  4 and  1:  
Electrostatics (REF.)                  -0.001743637 
Exchange (REF.)                        -0.000000599 
Dispersion (strong pairs)               0.000000000 
Dispersion (weak pairs)                -0.000047361 

Interaction of fragments  4 and  2:  
Electrostatics (REF.)                  -0.067350532 
Exchange (REF.)                        -0.010720872 
Dispersion (strong pairs)              -0.002606786 
Dispersion (weak pairs)                -0.000091007 

Interaction of fragments  4 and  3:  
Electrostatics (REF.)                  -0.003742292 
Exchange (REF.)                        -0.000025968 
Dispersion (strong pairs)              -0.000049443 
Dispersion (weak pairs)                -0.000087089 

Interaction of fragments  5 and  1:  
Electrostatics (REF.)                  -0.067314449 
Exchange (REF.)                        -0.010717133 
Dispersion (strong pairs)              -0.002590218 
Dispersion (weak pairs)                -0.000090977 

Interaction of fragments  5 and  2:  
Electrostatics (REF.)                  -0.001602290 
Exchange (REF.)                        -0.000004299 
Dispersion (strong pairs)               0.000000000 
Dispersion (weak pairs)                -0.000063850 

Interaction of fragments  5 and  3:  
Electrostatics (REF.)                  -0.003330737 
Exchange (REF.)                        -0.000030261 
Dispersion (strong pairs)              -0.000031006 
Dispersion (weak pairs)                -0.000082175 

Interaction of fragments  5 and  4:  
Electrostatics (REF.)                  -0.003448774 
Exchange (REF.)                        -0.000027797 
Dispersion (strong pairs)              -0.000037306 
Dispersion (weak pairs)                -0.000088722 

Interaction of fragments  6 and  1:  
Electrostatics (REF.)                  -0.003739601 
Exchange (REF.)                        -0.000025947 
Dispersion (strong pairs)              -0.000049423 
Dispersion (weak pairs)                -0.000087007 

Interaction of fragments  6 and  2:  
Electrostatics (REF.)                  -0.003330263 
Exchange (REF.)                        -0.000030171 
Dispersion (strong pairs)              -0.000030988 
Dispersion (weak pairs)                -0.000082136 

Interaction of fragments  6 and  3:  
Electrostatics (REF.)                  -0.001636304 
Exchange (REF.)                        -0.000001471 
Dispersion (strong pairs)               0.000000000 
Dispersion (weak pairs)                -0.000045937 

Interaction of fragments  6 and  4:  
Electrostatics (REF.)                  -0.071371696 
Exchange (REF.)                        -0.011158429 
Dispersion (strong pairs)              -0.002665925 
Dispersion (weak pairs)                -0.000089221 

Interaction of fragments  6 and  5:  
Electrostatics (REF.)                  -0.070132355 
Exchange (REF.)                        -0.011051527 
Dispersion (strong pairs)              -0.002634679 
Dispersion (weak pairs)                -0.000089131 

Sum of non dispersive correlation terms: 
Non dispersion (strong pairs)          -1.643831066  
Non dispersion (weak pairs)            -0.000280889  

#Time for LED analysis ..      22.7 (sec)



--------------------------------------------------------------------------------
                                    TIMINGS
--------------------------------------------------------------------------------


Total execution time                   ...      768.605 sec

Localization of occupied MO's          ...        0.465 sec (  0.1%)
Fock Matrix Formation                  ...        8.086 sec (  1.1%)
Global overlap, Fock, MKN matrices     ...        0.699 sec (  0.1%)
Differential overlap integrals         ...        2.349 sec (  0.3%)
Organizing maps                        ...        0.062 sec (  0.0%)
RI 3-index integral generations        ...       14.198 sec (  1.8%)
RI-PNO integral transformation         ...      129.605 sec ( 16.9%)
Initial Guess                          ...       22.170 sec (  2.9%)
DIIS Solver                            ...        1.132 sec (  0.1%)
State Vector Update                    ...        0.024 sec (  0.0%)
Sigma-vector construction              ...       81.955 sec ( 10.7%)
  <D|H|D>(0-ext)                       ...        1.522 sec (  1.9% of sigma)
  <D|H|D>(2-ext Fock)                  ...        0.007 sec (  0.0% of sigma)
  <D|H|D>(2-ext)                       ...        8.894 sec ( 10.9% of sigma)
  <D|H|D>(4-ext)                       ...       11.549 sec ( 14.1% of sigma)
  <D|H|D>(4-ext-corr)                  ...       43.397 sec ( 53.0% of sigma)
  CCSD doubles correction              ...        0.084 sec (  0.1% of sigma)
  <S|H|S>                              ...        0.887 sec (  1.1% of sigma)
  <S|H|D>(1-ext)                       ...        0.213 sec (  0.3% of sigma)
  <D|H|S>(1-ext)                       ...        0.006 sec (  0.0% of sigma)
  <S|H|D>(3-ext)                       ...        0.272 sec (  0.3% of sigma)
  Fock-dressing                        ...        9.877 sec ( 12.1% of sigma)
  Singles amplitudes                   ...        0.852 sec (  1.0% of sigma)
  (ik|jl)-dressing                     ...        0.741 sec (  0.9% of sigma)
  (ij|ab),(ia|jb)-dressing             ...        0.635 sec (  0.8% of sigma)
  Pair energies                        ...        0.010 sec (  0.0% of sigma)
Total Time for computing (T)           ...      485.017 sec ( 63.1% of ALL)
Local Energy Decomposition             ...       22.700 sec (  3.0% of ALL)


Maximum memory used throughout the entire MDCI-calculation: 3924.1 MB

-------------------------   --------------------
FINAL SINGLE POINT ENERGY      -458.124982886381
-------------------------   --------------------


                            ***************************************
                            *     ORCA property calculations      *
                            ***************************************


  WARNING: The energy has been calculated at the MDCI level but the densities
           used in the property calculations are still SCF densities
           MDCI response densities have not been calculated 
           use %mdci Density linearized end
           or  %mdci Density unrelaxed end
           or  %mdci Density orbopt end

                                    ---------------------
                                    Active property flags
                                    ---------------------
   (+) Dipole Moment


------------------------------------------------------------------------------
                       ORCA ELECTRIC PROPERTIES CALCULATION
------------------------------------------------------------------------------

Dipole Moment Calculation                       ... on
Quadrupole Moment Calculation                   ... off
Polarizability Calculation                      ... off
GBWName                                         ... W.gbw
Electron density                                ... W.scfp
The origin for moment calculation is the CENTER OF MASS  = ( 1.530610,  1.270895 -0.232334)

-------------
DIPOLE MOMENT
-------------
                                X             Y             Z
Electronic contribution:     -0.00157       0.08872       0.13102
Nuclear contribution   :      0.00917      -0.36404      -0.54173
                        -----------------------------------------
Total Dipole Moment    :      0.00760      -0.27532      -0.41071
                        -----------------------------------------
Magnitude (a.u.)       :      0.49451
Magnitude (Debye)      :      1.25694



--------------------
Rotational spectrum 
--------------------
 
Rotational constants in cm-1:     0.043239     0.041901     0.022852 
Rotational constants in MHz :  1296.287227  1256.174798   685.073743 

 Dipole components along the rotational axes: 
x,y,z [a.u.] :     0.000853     0.000415    -0.494507 
x,y,z [Debye]:     0.002167     0.001055    -1.256937 

 

--------------------------------
SUGGESTED CITATIONS FOR THIS RUN
--------------------------------

Below you find a list of papers that are relevant to this ORCA run
We neither can nor want to force you to cite these paper, but we appreciate if you do
You receive ORCA, which is the product of a lot of hard work by many enthusiastic individuals, for free
The *only* thing we kindly ask in return is that you cite our papers,
We deeply appreciate it, if you show your appreciation for ORCA but *not* just citing the generic ORCA reference.

Please note that relegating all ORCA citations to the supporting information does *not* help us.
SI sections are not index - citations you put there will not count into our citation statistics
But we need these citations in order to attract the funding ressources that allow us to do what we are doing

Therefore, please consider citing at least a few of the papers listed below, if you are a happy ORCA user

In addition to the list printed below, the program has created the file W.bibtex that contains the list in bibtex format
In this format, you can import it easily in all common literature databanks and citation aid programs


List of essential papers. We consider these as the minimum necessary citations

  1. Neese,F.
     Software update: the ORCA program system, version 5.0
     WIRES Comput. Molec. Sci., 2022 12(1)e1606
     doi.org/10.1002/wcms.1606

List of papers to cite with high priority. The work reported in these papers was absolutely
necessary for this run to complete.
Our perspective: the developers of density functionals and basis sets usually get cited in chemistry papers
Good! But without the algorithms to do something with them, the functionals or basis sets would not do anything.
Hence, in our opinion, the algorithm design and method developments papers are equally worthy of getting cited

  1. Neese,F.
     An improvement of the resolution of the identity approximation for the formation of the Coulomb matrix
     J. Comp. Chem., 2003 24(14)1740-1747
     doi.org/10.1002/jcc.10318
  2. Neese,F.; Wennmohs,F.; Hansen,A.; Becker,U.
     Efficient, approximate and parallel Hartree-Fock and hybrid DFT calculations. A 'chain-of-spheres' algorithm for the Hartree-Fock exchange
     Chem. Phys., 2009 356(1-3)98-109
     doi.org/10.1016/j.chemphys.2008.10.036
  3. Neese,F.; Hansen,A.; Liakos,D.G.
     Efficient and accurate approximations to the local coupled cluster singles doubles method using a truncated pair natural orbital basis
     J. Chem. Phys., 2009 131 064103
     doi.org/10.1063/1.3173827
  4. Neese,F.; Wennmohs,F.; Hansen,A.
     Efficient and accurate local approximations to coupled-electron pair approaches: An attempt to revive the pair natural orbital method
     J. Chem. Phys., 2009 130 114108
     doi.org/10.1063/1.3086717
  5. Riplinger,C.; Neese,F.
     An efficient and near linear scaling pair natural orbital based local coupled cluster method
     J. Chem. Phys., 2013 138(3)Art. No. 034106
     doi.org/10.1063/1.4773581
  6. Riplinger,C.; Sandhoefer,B.; Hansen,A.; Neese,F.
     Natural triple excitations in local coupled cluster calculations with pair natural orbitals
     J. Chem. Phys., 2013 139(13)Art. No. 134101
     doi.org/10.1063/1.4821834
  7. Riplinger,C.; Pinski,P.; Becker,U.; Valeev,E.F.; Neese,F.
     Sparse maps-A systematic infrastructure for reduced-scaling electronic structure methods. II. Linear scaling domain based pair natural orbital coupled cluster theory
     J. Chem. Phys., 2016 144 
     doi.org/10.1063/1.4939030
  8. Schneider,W.B.; Bistoni,G.; Sparta,M.; Saitow,M.; Riplinger,C.; Auer,A.A.; Neese,F.
     Decomposition of Intermolecular Interaction Energies within the Local Pair Natural Orbital Coupled Cluster Framework
     J. Theo. Comp. Chem., 2016 12 4778-4792
     doi.org/10.1021/acs.jctc.6b00523
  9. Bistoni,G.; Riplinger,C.; Minenkov,Y.; Cavallo,L.; Auer,A.A.; Neese,F.
     Treating Subvalence Correlation Effects in Domain Based Pair Natural Orbital Coupled Cluster Calculations: An Out-of-the-Box Approach
     J. Theo. Comp. Chem., 2017 13 3220-3227
     doi.org/10.1021/acs.jctc.7b00352
 10. Guo,Y.; Riplinger,C.; Becker,U.; Liakos,D.G.; Minenkov,Y.; Cavallo,L.; Neese,F.
     Communication: An improved linear scaling perturbative triples correction for the domain based local pair-natural orbital based singles and doubles coupled cluster method DLPNO-CCSD(T)
     J. Chem. Phys., 2018 148 5
     doi.org/10.1063/1.5011798
 11. Helmich-Paris,B.; de Souza,B.; Neese,F.; Izsk,R.
     An improved chain of spheres for exchange algorithm
     J. Chem. Phys., 2021 155 104109
     doi.org/doi: 10.1063/5.0058766.

List of suggested additional citations. These are papers that are important in the 'surrounding' of 
of this run, or papers that preceded the highly important papers. If you like your results we are grateful for a citation.

  1. Izsak,R.; Neese,F.
     An overlap fitted chain of spheres exchange method
     J. Chem. Phys., 2011 135 144105
     doi.org/10.1063/1.3646921
  2. Izsak,R.; Hansen,A.; Neese,F.
     The resolution of identity and chain of spheres approximations for the LPNO-CCSD singles Fock term
     Molec. Phys., 2012 110 2413-2417
     doi.org/10.1080/00268976.2012.687466
  3. Neese,F.
     The ORCA program system
     WIRES Comput. Molec. Sci., 2012 2(1)73-78
     doi.org/10.1002/wcms.81
  4. Izsak,R.; Neese,F.; Klopper,W.
     Robust fitting techniques in the chain of spheres approximation to the Fock exchange: The role of the complementary space
     J. Chem. Phys., 2013 139 
     doi.org/10.1063/1.4819264
  5. Neese,F.
     Software update: the ORCA program system, version 4.0
     WIRES Comput. Molec. Sci., 2018 8(1)1-6
     doi.org/10.1002/wcms.1327
  6. Neese,F.; Wennmohs,F.; Becker,U.; Riplinger,C.
     The ORCA quantum chemistry program package
     J. Chem. Phys., 2020 152 Art. No. L224108
     doi.org/10.1063/5.0004608
  7. Bistoni,G.
     Finding chemical concepts in the Hilbert space: Coupled cluster analyses of noncovalent interactions
     WIRES Comput. Molec. Sci., 2020 10(3)e1442
     doi.org/10.1002/wcms.1442

Timings for individual modules:

Sum of individual times         ...      823.121 sec (=  13.719 min)
GTO integral calculation        ...        7.574 sec (=   0.126 min)   0.9 %
SCF iterations                  ...       45.479 sec (=   0.758 min)   5.5 %
MDCI module                     ...      770.068 sec (=  12.834 min)  93.6 %
                             ****ORCA TERMINATED NORMALLY****
TOTAL RUN TIME: 0 days 0 hours 13 minutes 44 seconds 42 msec
