                                 *****************
                                 * O   R   C   A *
                                 *****************

                                            #,                                       
                                            ###                                      
                                            ####                                     
                                            #####                                    
                                            ######                                   
                                           ########,                                 
                                     ,,################,,,,,                         
                               ,,#################################,,                 
                          ,,##########################################,,             
                       ,#########################################, ''#####,          
                    ,#############################################,,   '####,        
                  ,##################################################,,,,####,       
                ,###########''''           ''''###############################       
              ,#####''   ,,,,##########,,,,          '''####'''          '####       
            ,##' ,,,,###########################,,,                        '##       
           ' ,,###''''                  '''############,,,                           
         ,,##''                                '''############,,,,        ,,,,,,###''
      ,#''                                            '''#######################'''  
     '                                                          ''''####''''         
             ,#######,   #######,   ,#######,      ##                                
            ,#'     '#,  ##    ##  ,#'     '#,    #''#        ######   ,####,        
            ##       ##  ##   ,#'  ##            #'  '#       #        #'  '#        
            ##       ##  #######   ##           ,######,      #####,   #    #        
            '#,     ,#'  ##    ##  '#,     ,#' ,#      #,         ##   #,  ,#        
             '#######'   ##     ##  '#######'  #'      '#     #####' # '####'        



                  #######################################################
                  #                        -***-                        #
                  #          Department of theory and spectroscopy      #
                  #    Directorship and core code : Frank Neese         #
                  #        Max Planck Institute fuer Kohlenforschung    #
                  #                Kaiser Wilhelm Platz 1               #
                  #                 D-45470 Muelheim/Ruhr               #
                  #                      Germany                        #
                  #                                                     #
                  #                  All rights reserved                #
                  #                        -***-                        #
                  #######################################################


                         Program Version 5.0  -  CURRENT   -
                                (GIT: $76ccee9ca$)
                ($2022-06-14 15:14:42 +0200 $)

                  !                     WARNING:                         !
                  !         This is a DEVELOPMENT version                !

                         (BUILD: $Mi 15. Jun 00:07:41 CEST 2022$)


 With contributions from (in alphabetic order):
   Daniel Aravena         : Magnetic Suceptibility
   Michael Atanasov       : Ab Initio Ligand Field Theory (pilot matlab implementation)
   Alexander A. Auer      : GIAO ZORA, VPT2 properties, NMR spectrum
   Ute Becker             : Parallelization
   Giovanni Bistoni       : ED, misc. LED, open-shell LED, HFLD
   Martin Brehm           : Molecular dynamics
   Dmytro Bykov           : SCF Hessian
   Vijay G. Chilkuri      : MRCI spin determinant printing, contributions to CSF-ICE
   Dipayan Datta          : RHF DLPNO-CCSD density
   Achintya Kumar Dutta   : EOM-CC, STEOM-CC
   Dmitry Ganyushin       : Spin-Orbit,Spin-Spin,Magnetic field MRCI
   Miquel Garcia          : C-PCM and meta-GGA Hessian, CC/C-PCM, Gaussian charge scheme
   Yang Guo               : DLPNO-NEVPT2, F12-NEVPT2, CIM, IAO-localization
   Andreas Hansen         : Spin unrestricted coupled pair/coupled cluster methods
   Benjamin Helmich-Paris : MC-RPA, TRAH-SCF, COSX integrals
   Lee Huntington         : MR-EOM, pCC
   Robert Izsak           : Overlap fitted RIJCOSX, COSX-SCS-MP3, EOM
   Marcus Kettner         : VPT2
   Christian Kollmar      : KDIIS, OOCD, Brueckner-CCSD(T), CCSD density, CASPT2, CASPT2-K, improved NEVPT2
   Simone Kossmann        : Meta GGA functionals, TD-DFT gradient, OOMP2, MP2 Hessian
   Martin Krupicka        : Initial AUTO-CI
   Lucas Lang             : DCDCAS
   Marvin Lechner         : AUTO-CI (C++ implementation), FIC-MRCC
   Dagmar Lenk            : GEPOL surface, SMD
   Dimitrios Liakos       : Extrapolation schemes; Compound Job, initial MDCI parallelization
   Dimitrios Manganas     : Further ROCIS development; embedding schemes
   Dimitrios Pantazis     : SARC Basis sets
   Anastasios Papadopoulos: AUTO-CI, single reference methods and gradients
   Taras Petrenko         : DFT Hessian,TD-DFT gradient, ASA, ECA, R-Raman, ABS, FL, XAS/XES, NRVS
   Peter Pinski           : DLPNO-MP2, DLPNO-MP2 Gradient
   Christoph Reimann      : Effective Core Potentials
   Marius Retegan         : Local ZFS, SOC
   Christoph Riplinger    : Optimizer, TS searches, QM/MM, DLPNO-CCSD(T), (RO)-DLPNO pert. Triples
   Tobias Risthaus        : Range-separated hybrids, TD-DFT gradient, RPA, STAB
   Michael Roemelt        : Original ROCIS implementation
   Masaaki Saitow         : Open-shell DLPNO-CCSD energy and density
   Barbara Sandhoefer     : DKH picture change effects
   Avijit Sen             : IP-ROCIS
   Kantharuban Sivalingam : CASSCF convergence, NEVPT2, FIC-MRCI
   Bernardo de Souza      : ESD, SOC TD-DFT
   Georgi Stoychev        : AutoAux, RI-MP2 NMR, DLPNO-MP2 response
   Willem Van den Heuvel  : Paramagnetic NMR
   Boris Wezisla          : Elementary symmetry handling
   Frank Wennmohs         : Technical directorship


 We gratefully acknowledge several colleagues who have allowed us to
 interface, adapt or use parts of their codes:
   Stefan Grimme, W. Hujo, H. Kruse, P. Pracht,  : VdW corrections, initial TS optimization,
                  C. Bannwarth, S. Ehlert          DFT functionals, gCP, sTDA/sTD-DF
   Ed Valeev, F. Pavosevic, A. Kumar             : LibInt (2-el integral package), F12 methods
   Garnet Chan, S. Sharma, J. Yang, R. Olivares  : DMRG
   Ulf Ekstrom                                   : XCFun DFT Library
   Mihaly Kallay                                 : mrcc  (arbitrary order and MRCC methods)
   Jiri Pittner, Ondrej Demel                    : Mk-CCSD
   Frank Weinhold                                : gennbo (NPA and NBO analysis)
   Christopher J. Cramer and Donald G. Truhlar   : smd solvation model
   Lars Goerigk                                  : TD-DFT with DH, B97 family of functionals
   V. Asgeirsson, H. Jonsson                     : NEB implementation
   FAccTs GmbH                                   : IRC, NEB, NEB-TS, DLPNO-Multilevel, CI-OPT
                                                   MM, QMMM, 2- and 3-layer-ONIOM, Crystal-QMMM,
                                                   LR-CPCM, SF, NACMEs, symmetry and pop. for TD-DFT,
                                                   nearIR, NL-DFT gradient (VV10), updates on ESD,
                                                   ML-optimized integration grids
   S Lehtola, MJT Oliveira, MAL Marques          : LibXC Library
   Liviu Ungur et al                             : ANISO software


 Your calculation uses the libint2 library for the computation of 2-el integrals
 For citations please refer to: http://libint.valeyev.net

 Your ORCA version has been built with support for libXC version: 5.2.2
 For citations please refer to: https://tddft.org/programs/libxc/

 This ORCA versions uses:
   CBLAS   interface :  Fast vector & matrix operations
   LAPACKE interface :  Fast linear algebra routines
   SCALAPACK package :  Parallel linear algebra routines
   Shared memory     :  Shared parallel matrices


================================================================================

----- Orbital basis set information -----
Your calculation utilizes the basis: aug-cc-pVQZ 
    H, B-Ne : Obtained from the ccRepo (grant-hill.group.shef.ac.uk/ccrepo) Feb. 2017
              R. A. Kendall, T. H. Dunning, Jr., R. J. Harrison, J. Chem. Phys. 96, 6796 (1992)
         He : Obtained from the ccRepo (grant-hill.group.shef.ac.uk/ccrepo) Feb. 2017
              D. E. Woon, T. H. Dunning, Jr., J. Chem. Phys. 100, 2975 (1994)
  Li-Be, Na : Obtained from the ccRepo (grant-hill.group.shef.ac.uk/ccrepo) Feb. 2017
              B. P. Prascher, D. E. Woon, K. A. Peterson, T. H. Dunning, Jr., A. K. Wilson, Theor. Chem. Acc. 128, 69 (2011)
         Mg : Obtained from the Peterson Research Group Website (tyr0.chem.wsu.edu/~kipeters) Feb. 2017
              B. P. Prascher, D. E. Woon, K. A. Peterson, T. H. Dunning, Jr., A. K. Wilson, Theor. Chem. Acc. 128, 69 (2011)
      Al-Ar : Obtained from the ccRepo (grant-hill.group.shef.ac.uk/ccrepo) Feb. 2017
              D. E. Woon, T. H. Dunning, Jr., J. Chem. Phys. 98, 1358 (1993)
      Sc-Zn : Obtained from the ccRepo (grant-hill.group.shef.ac.uk/ccrepo) Feb. 2017
              N. B. Balabanov, K. A. Peterson, J. Chem. Phys. 123, 064107 (2005)
              N. B. Balabanov, K. A. Peterson, J. Chem. Phys. 125, 074110 (2006)
      Ga-Kr : Obtained from the ccRepo (grant-hill.group.shef.ac.uk/ccrepo) Feb. 2017
              A. K. Wilson, D. E. Woon, K. A. Peterson, T. H. Dunning, Jr., J. Chem. Phys. 110, 7667 (1999)

----- AuxJ basis set information -----
----- AuxC basis set information -----
================================================================================
                                        WARNINGS
                       Please study these warnings very carefully!
================================================================================


WARNING: Post HF methods need fully converged wavefunctions
  ===> : Setting SCFConvForced true
         You can overwrite this default with %scf ConvForced false 


WARNING: MDCI localization with Augmented Hessian Foster-Boys
  ===> : Switching off randomization!

INFO   : the flag for use of the SHARK integral package has been found!

================================================================================
                                       INPUT FILE
================================================================================
NAME = frag61.inp
|  1> ! DLPNO-CCSD(T1) aug-cc-pVQZ DEFGRID3 RIJCOSX def2/J aug-cc-pV5Z/C verytightscf TightPNO LED
|  2> 
|  3> %pal nprocs 16 end
|  4> %maxcore 6000
|  5> %scf maxiter 999 end
|  6> %basis auxj "autoaux" auxc "autoaux" autoauxlmax true end
|  7> %mdci TCutPNO 1e-7 printlevel 3 end
|  8> 
|  9> * xyz 0 1
| 10> O(1)     1.597560181     2.978636709    -1.236245995
| 11> H(1)     1.417961949     3.808511891    -0.786488687
| 12> H(1)     0.711446199     2.593888593    -1.420550970
| 13> O(2)    -1.753042425     0.416462959     0.356105280
| 14> H(2)    -1.120933301    -0.183098298     0.812596940
| 15> H(2)    -2.593310567    -0.048459739     0.359102074
| 16> *
| 17> 
| 18>                          ****END OF INPUT****
================================================================================

                       ****************************
                       * Single Point Calculation *
                       ****************************

---------------------------------
CARTESIAN COORDINATES (ANGSTROEM)
---------------------------------
  O      1.597560    2.978637   -1.236246
  H      1.417962    3.808512   -0.786489
  H      0.711446    2.593889   -1.420551
  O     -1.753042    0.416463    0.356105
  H     -1.120933   -0.183098    0.812597
  H     -2.593311   -0.048460    0.359102

----------------------------
CARTESIAN COORDINATES (A.U.)
----------------------------
  NO LB      ZA    FRAG     MASS         X           Y           Z
   0 O     8.0000    1    15.999    3.018951    5.628808   -2.336166
   1 H     1.0000    1     1.008    2.679560    7.197044   -1.486248
   2 H     1.0000    1     1.008    1.344438    4.901739   -2.684452
   3 O     8.0000    2    15.999   -3.312770    0.787001    0.672941
   4 H     1.0000    2     1.008   -2.118257   -0.346006    1.535586
   5 H     1.0000    2     1.008   -4.900647   -0.091576    0.678605

----------------------------------------------
CARTESIAN COORDINATES OF FRAGMENTS (ANGSTROEM)
----------------------------------------------

 FRAGMENT 1 
  O     1.597560    2.978637   -1.236246
  H     1.417962    3.808512   -0.786489
  H     0.711446    2.593889   -1.420551

 FRAGMENT 2 
  O    -1.753042    0.416463    0.356105
  H    -1.120933   -0.183098    0.812597
  H    -2.593311   -0.048460    0.359102

--------------------------------
INTERNAL COORDINATES (ANGSTROEM)
--------------------------------
 O      0   0   0     0.000000000000     0.00000000     0.00000000
 H      1   0   0     0.960848572220     0.00000000     0.00000000
 H      1   2   0     0.983461959443   104.90384132     0.00000000
 O      3   1   2     3.737832794560   137.12959028   272.71097794
 H      4   3   1     0.983575254462    98.74102156   323.26892189
 H      4   3   1     0.960319033629   149.36384385   181.33838710

---------------------------
INTERNAL COORDINATES (A.U.)
---------------------------
 O      0   0   0     0.000000000000     0.00000000     0.00000000
 H      1   0   0     1.815740657664     0.00000000     0.00000000
 H      1   2   0     1.858473766477   104.90384132     0.00000000
 O      3   1   2     7.063480316108   137.12959028   272.71097794
 H      4   3   1     1.858687863034    98.74102156   323.26892189
 H      4   3   1     1.814739974751   149.36384385   181.33838710

---------------------
BASIS SET INFORMATION
---------------------
There are 2 groups of distinct atoms

 Group   1 Type O   : 22s7p4d3f2g contracted to 6s5p4d3f2g pattern {991111/31111/1111/111/11}
 Group   2 Type H   : 7s4p3d2f contracted to 5s4p3d2f pattern {31111/1111/111/11}

Atom   0O    basis set group =>   1
Atom   1H    basis set group =>   2
Atom   2H    basis set group =>   2
Atom   3O    basis set group =>   1
Atom   4H    basis set group =>   2
Atom   5H    basis set group =>   2
---------------------------------
AUXILIARY/J BASIS SET INFORMATION
---------------------------------
There are 2 groups of distinct atoms

 Group   1 Type O   : 16s14p13d7f7g5h3i3j contracted to 16s14p13d7f7g5h3i3j pattern {1111111111111111/11111111111111/1111111111111/1111111/1111111/11111/111/111}
 Group   2 Type H   : 15s7p6d5f5g4h3i contracted to 15s7p6d5f5g4h3i pattern {111111111111111/1111111/111111/11111/11111/1111/111}

Atom   0O    basis set group =>   1
Atom   1H    basis set group =>   2
Atom   2H    basis set group =>   2
Atom   3O    basis set group =>   1
Atom   4H    basis set group =>   2
Atom   5H    basis set group =>   2
---------------------------------
AUXILIARY/C BASIS SET INFORMATION
---------------------------------
There are 2 groups of distinct atoms

 Group   1 Type O   : 16s14p13d7f7g5h3i3j contracted to 16s14p13d7f7g5h3i3j pattern {1111111111111111/11111111111111/1111111111111/1111111/1111111/11111/111/111}
 Group   2 Type H   : 15s7p6d5f5g4h3i contracted to 15s7p6d5f5g4h3i pattern {111111111111111/1111111/111111/11111/11111/1111/111}

Atom   0O    basis set group =>   1
Atom   1H    basis set group =>   2
Atom   2H    basis set group =>   2
Atom   3O    basis set group =>   1
Atom   4H    basis set group =>   2
Atom   5H    basis set group =>   2

Checking for AutoStart:
The File: frag61.gbw exists
Trying to determine its content:
     ... Fine, the file contains calculation information
     ... Fine, the calculation information was read
     ... Fine, the file contains a basis set
     ... Fine, the basis set was read
     ... Fine, the file contains a geometry
     ... Fine, the geometry was read
     ... Fine, the file contains a set of orbitals
     ... Fine, the orbitals can be read
     => possible old guess file was deleted
     => GBW file was renamed to GES file
     => GES file is set as startup file
     => Guess is set to MORead
     ... now leaving AutoStart



           ************************************************************
           *        Program running with 16 parallel MPI-processes    *
           *              working on a common directory               *
           ************************************************************
------------------------------------------------------------------------------
                           ORCA GTO INTEGRAL CALCULATION
                           -- RI-GTO INTEGRALS CHOSEN --
------------------------------------------------------------------------------
------------------------------------------------------------------------------
                   ___                                                        
                  /   \      - P O W E R E D   B Y -                         
                 /     \                                                     
                 |  |  |   _    _      __       _____    __    __             
                 |  |  |  | |  | |    /  \     |  _  \  |  |  /  |          
                  \  \/   | |  | |   /    \    | | | |  |  | /  /          
                 / \  \   | |__| |  /  /\  \   | |_| |  |  |/  /          
                |  |  |   |  __  | /  /__\  \  |    /   |      \           
                |  |  |   | |  | | |   __   |  |    \   |  |\   \          
                \     /   | |  | | |  |  |  |  | |\  \  |  | \   \       
                 \___/    |_|  |_| |__|  |__|  |_| \__\ |__|  \__/        
                                                                              
                      - O R C A' S   B I G   F R I E N D -                    
                                      &                                       
                       - I N T E G R A L  F E E D E R -                       
                                                                              
 v1 FN, 2020, v2 2021                                                         
------------------------------------------------------------------------------


Reading SHARK input file frag61.SHARKINP.tmp ... ok
Calculating pre-screening integrals         ... done (  0.0 sec) Dimension = 110
Calculating pre-screening integrals (ORCA)  ... done (  0.1 sec) Dimension = 96
Organizing shell pair data                  ... done (  0.1 sec)
Shell pair information
Total number of shell pairs                 ...      6105
Shell pairs after pre-screening             ...      5140
Total number of primitive shell pairs       ...      7521
Primitive shell pairs kept                  ...      6026
          la=0 lb=0:    865 shell pairs
          la=1 lb=0:   1005 shell pairs
          la=1 lb=1:    319 shell pairs
          la=2 lb=0:    763 shell pairs
          la=2 lb=1:    461 shell pairs
          la=2 lb=2:    186 shell pairs
          la=3 lb=0:    532 shell pairs
          la=3 lb=1:    323 shell pairs
          la=3 lb=2:    247 shell pairs
          la=3 lb=3:     93 shell pairs
          la=4 lb=0:    135 shell pairs
          la=4 lb=1:     87 shell pairs
          la=4 lb=2:     67 shell pairs
          la=4 lb=3:     48 shell pairs
          la=4 lb=4:      9 shell pairs

Calculating one electron integrals          ... done (  0.0 sec)
Calculating RI/J V-Matrix + Cholesky decomp.... done (  0.6 sec)
Calculating RI/C V-Matrix + Cholesky decomp.... done (  0.6 sec)
Calculating Nuclear repulsion               ... done (  0.0 sec) ENN=     29.778275920553 Eh

SHARK setup successfully completed in   1.6 seconds

Maximum memory used throughout the entire GTOINT-calculation: 93.9 MB


           ************************************************************
           *        Program running with 16 parallel MPI-processes    *
           *              working on a common directory               *
           ************************************************************
-------------------------------------------------------------------------------
                                 ORCA SCF
-------------------------------------------------------------------------------

------------
SCF SETTINGS
------------
Hamiltonian:
 Ab initio Hamiltonian  Method          .... Hartree-Fock(GTOs)
 RI-approximation to the Coulomb term is turned on
   Number of AuxJ basis functions       .... 1664
   RIJ-COSX (HFX calculated with COS-X)).... on


General Settings:
 Integral files         IntName         .... frag61
 Hartree-Fock type      HFTyp           .... RHF
 Total Charge           Charge          ....    0
 Multiplicity           Mult            ....    1
 Number of Electrons    NEL             ....   20
 Basis Dimension        Dim             ....  344
 Nuclear Repulsion      ENuc            ....     29.7782759206 Eh

Convergence Acceleration:
 DIIS                   CNVDIIS         .... on
   Start iteration      DIISMaxIt       ....    12
   Startup error        DIISStart       ....  0.200000
   # of expansion vecs  DIISMaxEq       ....     5
   Bias factor          DIISBfac        ....   1.050
   Max. coefficient     DIISMaxC        ....  10.000
 Trust-Rad. Augm. Hess. CNVTRAH         .... auto
   Auto Start mean grad. ratio tolernc. ....  1.125000
   Auto Start start iteration           ....     1
   Auto Start num. interpolation iter.  ....    10
   Max. Number of Micro iterations      ....    24
   Max. Number of Macro iterations      .... Maxiter - #DIIS iter
   Max. Number of back steps            ....     5
   Number of Davidson start vectors     ....     2
   Converg. threshold I  (grad. norm)   ....   2.000e-06
   Converg. threshold II (energy diff.) ....   1.000e-09
   Grad. Scal. Fac. for Micro threshold ....   0.100
   Minimum threshold for Micro iter.    ....   1.000e-02
   NR start threshold (gradient norm)   ....   1.000e-04
   Initial trust radius                 ....   0.400
   Minimum AH scaling param. (alpha)    ....   1.000
   Maximum AH scaling param. (alpha)    .... 1000.000
   Inactive MOs                         .... canonicalized
   Orbital update algorithm             .... Taylor
   White noise on init. David. guess    .... on
   Maximum white noise                  ....   0.010
   Quad. conv. algorithm                .... NR
   Preconditioner                       .... approx. diagonal
 SOSCF                  CNVSOSCF        .... on
   Start iteration      SOSCFMaxIt      ....   150
   Startup grad/error   SOSCFStart      ....  0.003300
 Level Shifting         CNVShift        .... on
   Level shift para.    LevelShift      ....    0.2500
   Turn off err/grad.   ShiftErr        ....    0.0010
 Zerner damping         CNVZerner       .... off
 Static damping         CNVDamp         .... on
   Fraction old density DampFac         ....    0.7000
   Max. Damping (<1)    DampMax         ....    0.9800
   Min. Damping (>=0)   DampMin         ....    0.0000
   Turn off err/grad.   DampErr         ....    0.1000

SCF Procedure:
 Maximum # iterations   MaxIter         ....   999
 SCF integral mode      SCFMode         .... Direct
   Integral package                     .... SHARK and LIBINT hybrid scheme
 Reset frequency        DirectResetFreq ....    20
 Integral Threshold     Thresh          ....  1.000e-12 Eh
 Primitive CutOff       TCut            ....  1.000e-14 Eh

Convergence Tolerance:
 Convergence Check Mode ConvCheckMode   .... Total+1el-Energy
 Convergence forced     ConvForced      .... 1
 Energy Change          TolE            ....  1.000e-09 Eh
 1-El. energy change                    ....  1.000e-06 Eh
 Orbital Gradient       TolG            ....  2.000e-06
 Orbital Rotation angle TolX            ....  2.000e-06
 DIIS Error             TolErr          ....  1.000e-08


Diagonalization of the overlap matrix:
Smallest eigenvalue                        ... 7.767e-05
Time for diagonalization                   ...    0.015 sec
Threshold for overlap eigenvalues          ... 1.000e-08
Number of eigenvalues below threshold      ... 0
Time for construction of square roots      ...    0.011 sec
Total time needed                          ...    0.028 sec

---------------------
INITIAL GUESS: MOREAD
---------------------
Guess MOs are being read from file: frag61.ges
Input Geometry matches current geometry (good)
Input basis set matches current basis set (good)
MOs were renormalized
MOs were reorthogonalized (Cholesky)
                      ------------------
                      INITIAL GUESS DONE (   0.0 sec)
                      ------------------
--------------------
COSX GRID GENERATION
--------------------

GRIDX 1
-------
General Integration Accuracy     IntAcc      ... 4.020
Radial Grid Type                 RadialGrid  ... OptM3 with GC (2021)
Angular Grid (max. ang.)         AngularGrid ... 2 (Lebedev-110)
Angular grid pruning method      GridPruning ... 4 (adaptive)
Weight generation scheme         WeightScheme... Becke
Basis function cutoff            BFCut       ... 1.0000e-12
Integration weight cutoff        WCut        ... 1.0000e-14
Angular grids for H and He will be reduced by one unit
Partially contracted basis set               ... on
Rotationally invariant grid construction     ... off

Total number of grid points                  ...     8276
Total number of batches                      ...      133
Average number of points per batch           ...       62
Average number of grid points per atom       ...     1379
UseSFitting                                  ... on

GRIDX 2
-------
General Integration Accuracy     IntAcc      ... 4.338
Radial Grid Type                 RadialGrid  ... OptM3 with GC (2021)
Angular Grid (max. ang.)         AngularGrid ... 3 (Lebedev-194)
Angular grid pruning method      GridPruning ... 4 (adaptive)
Weight generation scheme         WeightScheme... Becke
Basis function cutoff            BFCut       ... 1.0000e-12
Integration weight cutoff        WCut        ... 1.0000e-14
Angular grids for H and He will be reduced by one unit
Partially contracted basis set               ... on
Rotationally invariant grid construction     ... off

Total number of grid points                  ...    18969
Total number of batches                      ...      298
Average number of points per batch           ...       63
Average number of grid points per atom       ...     3162
UseSFitting                                  ... on

GRIDX 3
-------
General Integration Accuracy     IntAcc      ... 4.871
Radial Grid Type                 RadialGrid  ... OptM3 with GC (2021)
Angular Grid (max. ang.)         AngularGrid ... 4 (Lebedev-302)
Angular grid pruning method      GridPruning ... 4 (adaptive)
Weight generation scheme         WeightScheme... Becke
Basis function cutoff            BFCut       ... 1.0000e-12
Integration weight cutoff        WCut        ... 1.0000e-14
Angular grids for H and He will be reduced by one unit
Partially contracted basis set               ... on
Rotationally invariant grid construction     ... off

Total number of grid points                  ...    37020
Total number of batches                      ...      580
Average number of points per batch           ...       63
Average number of grid points per atom       ...     6170
UseSFitting                                  ... on

Time for X-Grid setup             =    0.321 sec

 re-compute Schwartz prescreening matrix in partially contracted basis (1) ...done (   0.079 sec)
--------------
SCF ITERATIONS
--------------
ITER       Energy         Delta-E        Max-DP      RMS-DP      [F,P]     Damp
               ***  Starting incremental Fock matrix formation  ***
                      *** Initiating the SOSCF procedure ***
                      *** Re-Reading the Fockian *** 
                      *** Removing any level shift *** 
ITER       Energy         Delta-E        Max-DP      RMS-DP   
  0   -152.1303108785   0.000000000000 0.00119116  0.00002153
               *** Restarting incremental Fock matrix formation ***
  1   -152.1303331189  -0.000022240468 0.00114430  0.00002018
  2   -152.1303331500  -0.000000031008 0.00010448  0.00000158
  3   -152.1303330846   0.000000065399 0.00001740  0.00000020
  4   -152.1303330800   0.000000004539 0.00000498  0.00000007
  5   -152.1303330828  -0.000000002790 0.00000133  0.00000002
  6   -152.1303330832  -0.000000000393 0.00000029  0.00000000
                 **** Energy Check signals convergence ****
              ***Rediagonalizing the Fockian in SOSCF/NRSCF***

               *****************************************************
               *                     SUCCESS                       *
               *           SCF CONVERGED AFTER   7 CYCLES          *
               *****************************************************

Old exchange energy                            =    -17.860872043 Eh
New exchange energy                            =    -17.860850939 Eh
Exchange energy change after final integration =      0.000021104 Eh
Total energy after final integration           =   -152.130311979 Eh
Final COS-X integration done in                =     1.258 sec

----------------
TOTAL SCF ENERGY
----------------

Total Energy       :         -152.13031198 Eh           -4139.67625 eV

Components:
Nuclear Repulsion  :           29.77827592 Eh             810.30808 eV
Electronic Energy  :         -181.90858790 Eh           -4949.98433 eV
One Electron Energy:         -268.99529670 Eh           -7319.73415 eV
Two Electron Energy:           87.08670880 Eh            2369.74982 eV
Max COSX asymmetry :            0.00000081 Eh               0.00002 eV

Virial components:
Potential Energy   :         -304.00069914 Eh           -8272.27958 eV
Kinetic Energy     :          151.87038716 Eh            4132.60333 eV
Virial Ratio       :            2.00171149


---------------
SCF CONVERGENCE
---------------

  Last Energy change         ...    1.0633e-10  Tolerance :   1.0000e-09
  Last MAX-Density change    ...    2.6645e-15  Tolerance :   1.0000e-08
  Last RMS-Density change    ...    8.9060e-18  Tolerance :   1.0000e-09

             **** THE GBW FILE WAS UPDATED (frag61.gbw) ****
             **** DENSITY frag61.scfp WAS UPDATED ****
             **** ENERGY FILE WAS UPDATED (frag61.en.tmp) ****
             **** THE GBW FILE WAS UPDATED (frag61.gbw) ****
             **** DENSITY frag61.scfp WAS UPDATED ****
             **** ENERGY FILE WAS UPDATED (frag61.en.tmp) ****
----------------
ORBITAL ENERGIES
----------------

  NO   OCC          E(Eh)            E(eV) 
   0   2.0000     -20.572458      -559.8050 
   1   2.0000     -20.558083      -559.4139 
   2   2.0000      -1.350542       -36.7501 
   3   2.0000      -1.336230       -36.3607 
   4   2.0000      -0.717123       -19.5139 
   5   2.0000      -0.701545       -19.0900 
   6   2.0000      -0.586792       -15.9674 
   7   2.0000      -0.572795       -15.5865 
   8   2.0000      -0.514891       -14.0109 
   9   2.0000      -0.500501       -13.6193 
  10   0.0000       0.023125         0.6293 
  11   0.0000       0.038166         1.0386 
  12   0.0000       0.044055         1.1988 
  13   0.0000       0.055032         1.4975 
  14   0.0000       0.115634         3.1466 
  15   0.0000       0.124246         3.3809 
  16   0.0000       0.133922         3.6442 
  17   0.0000       0.139611         3.7990 
  18   0.0000       0.151411         4.1201 
  19   0.0000       0.160803         4.3757 
  20   0.0000       0.169667         4.6169 
  21   0.0000       0.177000         4.8164 
  22   0.0000       0.189202         5.1485 
  23   0.0000       0.199910         5.4398 
  24   0.0000       0.205686         5.5970 
  25   0.0000       0.213765         5.8168 
  26   0.0000       0.219666         5.9774 
  27   0.0000       0.237932         6.4745 
  28   0.0000       0.262232         7.1357 
  29   0.0000       0.268332         7.3017 
  30   0.0000       0.294017         8.0006 
  31   0.0000       0.301584         8.2065 
  32   0.0000       0.318777         8.6744 
  33   0.0000       0.334398         9.0994 
  34   0.0000       0.359368         9.7789 
  35   0.0000       0.381323        10.3763 
  36   0.0000       0.385946        10.5021 
  37   0.0000       0.414276        11.2730 
  38   0.0000       0.471798        12.8383 
  39   0.0000       0.481988        13.1156 
  40   0.0000       0.505753        13.7622 
  41   0.0000       0.527905        14.3650 
  42   0.0000       0.533448        14.5159 
  43   0.0000       0.541742        14.7416 
  44   0.0000       0.545739        14.8503 
  45   0.0000       0.559534        15.2257 
  46   0.0000       0.569975        15.5098 
  47   0.0000       0.576721        15.6934 
  48   0.0000       0.595949        16.2166 
  49   0.0000       0.612867        16.6770 
  50   0.0000       0.634045        17.2532 
  51   0.0000       0.638577        17.3766 
  52   0.0000       0.653435        17.7809 
  53   0.0000       0.656063        17.8524 
  54   0.0000       0.672861        18.3095 
  55   0.0000       0.685660        18.6577 
  56   0.0000       0.690111        18.7789 
  57   0.0000       0.716023        19.4840 
  58   0.0000       0.717650        19.5283 
  59   0.0000       0.728582        19.8257 
  60   0.0000       0.732214        19.9246 
  61   0.0000       0.736035        20.0285 
  62   0.0000       0.754055        20.5189 
  63   0.0000       0.775384        21.0993 
  64   0.0000       0.779744        21.2179 
  65   0.0000       0.798269        21.7220 
  66   0.0000       0.799727        21.7617 
  67   0.0000       0.810996        22.0683 
  68   0.0000       0.819106        22.2890 
  69   0.0000       0.822475        22.3807 
  70   0.0000       0.844940        22.9920 
  71   0.0000       0.860769        23.4227 
  72   0.0000       0.874333        23.7918 
  73   0.0000       0.892149        24.2766 
  74   0.0000       0.914618        24.8880 
  75   0.0000       0.960422        26.1344 
  76   0.0000       0.996321        27.1113 
  77   0.0000       1.026574        27.9345 
  78   0.0000       1.137631        30.9565 
  79   0.0000       1.141419        31.0596 
  80   0.0000       1.154612        31.4186 
  81   0.0000       1.167159        31.7600 
  82   0.0000       1.216865        33.1126 
  83   0.0000       1.248177        33.9646 
  84   0.0000       1.340752        36.4837 
  85   0.0000       1.359581        36.9961 
  86   0.0000       1.434443        39.0332 
  87   0.0000       1.443635        39.2833 
  88   0.0000       1.476687        40.1827 
  89   0.0000       1.492871        40.6231 
  90   0.0000       1.505488        40.9664 
  91   0.0000       1.508651        41.0525 
  92   0.0000       1.519828        41.3566 
  93   0.0000       1.528769        41.5999 
  94   0.0000       1.533762        41.7358 
  95   0.0000       1.547130        42.0996 
  96   0.0000       1.554461        42.2990 
  97   0.0000       1.587866        43.2080 
  98   0.0000       1.597059        43.4582 
  99   0.0000       1.614090        43.9216 
 100   0.0000       1.621518        44.1237 
 101   0.0000       1.631672        44.4001 
 102   0.0000       1.646418        44.8013 
 103   0.0000       1.652366        44.9632 
 104   0.0000       1.660170        45.1755 
 105   0.0000       1.671996        45.4973 
 106   0.0000       1.679900        45.7124 
 107   0.0000       1.695172        46.1280 
 108   0.0000       1.715154        46.6717 
 109   0.0000       1.728143        47.0252 
 110   0.0000       1.733005        47.1574 
 111   0.0000       1.741836        47.3978 
 112   0.0000       1.745579        47.4996 
 113   0.0000       1.757986        47.8372 
 114   0.0000       1.776986        48.3542 
 115   0.0000       1.786786        48.6209 
 116   0.0000       1.796882        48.8957 
 117   0.0000       1.817861        49.4665 
 118   0.0000       1.823614        49.6230 
 119   0.0000       1.830836        49.8196 
 120   0.0000       1.839002        50.0418 
 121   0.0000       1.859560        50.6012 
 122   0.0000       1.878834        51.1257 
 123   0.0000       1.897153        51.6242 
 124   0.0000       1.900907        51.7263 
 125   0.0000       1.907826        51.9146 
 126   0.0000       1.943476        52.8847 
 127   0.0000       1.964846        53.4662 
 128   0.0000       1.978947        53.8499 
 129   0.0000       1.990233        54.1570 
 130   0.0000       2.014028        54.8045 
 131   0.0000       2.029380        55.2222 
 132   0.0000       2.048729        55.7487 
 133   0.0000       2.050345        55.7927 
 134   0.0000       2.066653        56.2365 
 135   0.0000       2.084213        56.7143 
 136   0.0000       2.121031        57.7162 
 137   0.0000       2.153250        58.5929 
 138   0.0000       2.214330        60.2550 
 139   0.0000       2.230689        60.7001 
 140   0.0000       2.245063        61.0913 
 141   0.0000       2.252715        61.2995 
 142   0.0000       2.315821        63.0167 
 143   0.0000       2.324937        63.2648 
 144   0.0000       2.460389        66.9506 
 145   0.0000       2.465781        67.0973 
 146   0.0000       2.614737        71.1506 
 147   0.0000       2.620473        71.3067 
 148   0.0000       2.630090        71.5684 
 149   0.0000       2.711753        73.7905 
 150   0.0000       2.873491        78.1917 
 151   0.0000       2.894314        78.7583 
 152   0.0000       2.940189        80.0066 
 153   0.0000       2.955564        80.4250 
 154   0.0000       2.998115        81.5828 
 155   0.0000       3.020717        82.1979 
 156   0.0000       3.033524        82.5464 
 157   0.0000       3.054139        83.1073 
 158   0.0000       3.065101        83.4056 
 159   0.0000       3.079624        83.8008 
 160   0.0000       3.082260        83.8726 
 161   0.0000       3.110285        84.6352 
 162   0.0000       3.256733        88.6202 
 163   0.0000       3.271632        89.0256 
 164   0.0000       3.279844        89.2491 
 165   0.0000       3.298912        89.7680 
 166   0.0000       3.308620        90.0321 
 167   0.0000       3.335669        90.7682 
 168   0.0000       3.503464        95.3341 
 169   0.0000       3.515713        95.6674 
 170   0.0000       3.606181        98.1292 
 171   0.0000       3.610235        98.2395 
 172   0.0000       3.644576        99.1739 
 173   0.0000       3.660373        99.6038 
 174   0.0000       3.700306       100.6905 
 175   0.0000       3.711784       101.0028 
 176   0.0000       3.720778       101.2475 
 177   0.0000       3.722084       101.2831 
 178   0.0000       3.751886       102.0940 
 179   0.0000       3.774102       102.6985 
 180   0.0000       3.938843       107.1814 
 181   0.0000       3.955747       107.6414 
 182   0.0000       4.079368       111.0053 
 183   0.0000       4.093939       111.4018 
 184   0.0000       4.163357       113.2907 
 185   0.0000       4.169486       113.4575 
 186   0.0000       4.175558       113.6227 
 187   0.0000       4.175755       113.6281 
 188   0.0000       4.186127       113.9103 
 189   0.0000       4.188353       113.9709 
 190   0.0000       4.207564       114.4936 
 191   0.0000       4.220069       114.8339 
 192   0.0000       4.250578       115.6641 
 193   0.0000       4.287468       116.6679 
 194   0.0000       4.337650       118.0335 
 195   0.0000       4.353481       118.4643 
 196   0.0000       4.434819       120.6776 
 197   0.0000       4.462618       121.4340 
 198   0.0000       4.561507       124.1249 
 199   0.0000       4.583426       124.7213 
 200   0.0000       4.675424       127.2248 
 201   0.0000       4.700860       127.9169 
 202   0.0000       4.743984       129.0904 
 203   0.0000       4.753119       129.3389 
 204   0.0000       4.777435       130.0006 
 205   0.0000       4.785914       130.2313 
 206   0.0000       4.796405       130.5168 
 207   0.0000       4.805214       130.7565 
 208   0.0000       4.813751       130.9888 
 209   0.0000       4.834951       131.5657 
 210   0.0000       4.860834       132.2700 
 211   0.0000       4.891543       133.1057 
 212   0.0000       4.992680       135.8577 
 213   0.0000       5.010951       136.3549 
 214   0.0000       5.250765       142.8806 
 215   0.0000       5.261135       143.1628 
 216   0.0000       5.316227       144.6619 
 217   0.0000       5.338928       145.2796 
 218   0.0000       5.493739       149.4922 
 219   0.0000       5.497914       149.6058 
 220   0.0000       5.510754       149.9552 
 221   0.0000       5.553544       151.1196 
 222   0.0000       5.841542       158.9564 
 223   0.0000       5.846996       159.1049 
 224   0.0000       5.861929       159.5112 
 225   0.0000       5.885116       160.1421 
 226   0.0000       6.060406       164.9120 
 227   0.0000       6.069666       165.1640 
 228   0.0000       6.209495       168.9690 
 229   0.0000       6.214833       169.1142 
 230   0.0000       6.819578       185.5701 
 231   0.0000       6.832203       185.9137 
 232   0.0000       6.850190       186.4032 
 233   0.0000       6.854430       186.5185 
 234   0.0000       6.864609       186.7955 
 235   0.0000       6.872323       187.0054 
 236   0.0000       6.915848       188.1898 
 237   0.0000       6.927636       188.5106 
 238   0.0000       7.675990       208.8743 
 239   0.0000       7.692570       209.3255 
 240   0.0000       7.749292       210.8690 
 241   0.0000       7.756641       211.0689 
 242   0.0000       7.779706       211.6966 
 243   0.0000       7.782416       211.7703 
 244   0.0000       7.795905       212.1374 
 245   0.0000       7.804739       212.3777 
 246   0.0000       7.825392       212.9397 
 247   0.0000       7.869529       214.1408 
 248   0.0000       7.889403       214.6816 
 249   0.0000       7.897993       214.9153 
 250   0.0000       7.933167       215.8725 
 251   0.0000       7.946562       216.2369 
 252   0.0000       8.005377       217.8374 
 253   0.0000       8.026993       218.4256 
 254   0.0000       8.167528       222.2497 
 255   0.0000       8.184121       222.7012 
 256   0.0000       8.229589       223.9385 
 257   0.0000       8.244671       224.3489 
 258   0.0000       8.501673       231.3423 
 259   0.0000       8.527177       232.0363 
 260   0.0000       8.613747       234.3920 
 261   0.0000       8.634437       234.9550 
 262   0.0000       8.639869       235.1028 
 263   0.0000       8.655090       235.5170 
 264   0.0000       8.723727       237.3847 
 265   0.0000       8.739034       237.8012 
 266   0.0000       8.750694       238.1185 
 267   0.0000       8.768144       238.5933 
 268   0.0000       8.833531       240.3726 
 269   0.0000       8.845452       240.6970 
 270   0.0000       8.995236       244.7728 
 271   0.0000       9.009352       245.1569 
 272   0.0000       9.027504       245.6509 
 273   0.0000       9.039921       245.9887 
 274   0.0000       9.154534       249.1075 
 275   0.0000       9.181397       249.8385 
 276   0.0000       9.590171       260.9618 
 277   0.0000       9.624440       261.8943 
 278   0.0000       9.818013       267.1617 
 279   0.0000       9.833357       267.5793 
 280   0.0000       9.855404       268.1792 
 281   0.0000       9.873544       268.6728 
 282   0.0000       9.885808       269.0065 
 283   0.0000       9.897357       269.3208 
 284   0.0000       9.977542       271.5027 
 285   0.0000       9.992530       271.9106 
 286   0.0000      10.305666       280.4314 
 287   0.0000      10.321182       280.8536 
 288   0.0000      10.423426       283.6358 
 289   0.0000      10.435687       283.9695 
 290   0.0000      10.754817       292.6535 
 291   0.0000      10.763600       292.8924 
 292   0.0000      10.997311       299.2521 
 293   0.0000      11.014701       299.7253 
 294   0.0000      11.040826       300.4361 
 295   0.0000      11.061584       301.0010 
 296   0.0000      11.148196       303.3578 
 297   0.0000      11.168637       303.9141 
 298   0.0000      11.272490       306.7400 
 299   0.0000      11.299406       307.4725 
 300   0.0000      11.305728       307.6445 
 301   0.0000      11.321551       308.0751 
 302   0.0000      11.403435       310.3032 
 303   0.0000      11.414117       310.5939 
 304   0.0000      11.675500       317.7065 
 305   0.0000      11.701516       318.4144 
 306   0.0000      11.781208       320.5830 
 307   0.0000      11.785743       320.7064 
 308   0.0000      11.833299       322.0004 
 309   0.0000      11.864004       322.8360 
 310   0.0000      11.967796       325.6603 
 311   0.0000      11.981988       326.0465 
 312   0.0000      12.155674       330.7727 
 313   0.0000      12.165996       331.0536 
 314   0.0000      12.178445       331.3923 
 315   0.0000      12.197133       331.9009 
 316   0.0000      12.541358       341.2677 
 317   0.0000      12.560215       341.7808 
 318   0.0000      12.669519       344.7551 
 319   0.0000      12.684101       345.1519 
 320   0.0000      12.755092       347.0837 
 321   0.0000      12.773922       347.5961 
 322   0.0000      12.871196       350.2431 
 323   0.0000      12.888222       350.7063 
 324   0.0000      13.186607       358.8258 
 325   0.0000      13.195134       359.0578 
 326   0.0000      13.856079       377.0431 
 327   0.0000      13.868916       377.3924 
 328   0.0000      13.965428       380.0186 
 329   0.0000      13.983418       380.5081 
 330   0.0000      14.363325       390.8460 
 331   0.0000      14.383641       391.3988 
 332   0.0000      14.728357       400.7790 
 333   0.0000      14.738608       401.0579 
 334   0.0000      14.780740       402.2044 
 335   0.0000      14.799799       402.7230 
 336   0.0000      15.130706       411.7274 
 337   0.0000      15.142115       412.0379 
 338   0.0000      16.749161       455.7678 
 339   0.0000      16.763889       456.1686 
 340   0.0000      17.195870       467.9234 
 341   0.0000      17.211352       468.3447 
 342   0.0000      45.385583      1235.0045 
 343   0.0000      45.405773      1235.5539 

--------------------
FRAGMENT INFORMATION
--------------------
Fragment  1:    0   1   2 
Fragment  2:    3   4   5 


                    ********************************
                    * MULLIKEN POPULATION ANALYSIS *
                    ********************************

-------------------------
MULLIKEN FRAGMENT CHARGES
-------------------------
 Fragment   0 :  -0.000107
 Fragment   1 :   0.000107
Sum of fragment charges:    0.0000000

---------------------------------
MULLIKEN FRAGMENT OVERLAP CHARGES
---------------------------------
                  0          1    
      0      11.123729  -0.000530
      1      -0.000530  11.149624

-----------------------
MULLIKEN ATOMIC CHARGES
-----------------------
   0 O :   -0.616572
   1 H :    0.299288
   2 H :    0.317177
   3 O :   -0.611469
   4 H :    0.312343
   5 H :    0.299233
Sum of atomic charges:    0.0000000

--------------------------------
MULLIKEN REDUCED ORBITAL CHARGES
--------------------------------
  0 O s       :     3.875966  s :     3.875966
      pz      :     1.758556  p :     4.702502
      px      :     1.485818
      py      :     1.458128
      dz2     :     0.003957  d :     0.033807
      dxz     :     0.003071
      dyz     :     0.005887
      dx2y2   :     0.013330
      dxy     :     0.007561
      f0      :     0.000777  f :     0.003769
      f+1     :     0.000533
      f-1     :     0.000211
      f+2     :     0.000827
      f-2     :     0.000386
      f+3     :     0.000197
      f-3     :     0.000838
      g0      :     0.000028  g :     0.000529
      g+1     :     0.000028
      g-1     :     0.000048
      g+2     :     0.000035
      g-2     :     0.000025
      g+3     :     0.000060
      g-3     :     0.000118
      g+4     :     0.000042
      g-4     :     0.000144
  1 H s       :     0.598136  s :     0.598136
      pz      :     0.041287  p :     0.091280
      px      :     0.024742
      py      :     0.025250
      dz2     :     0.004946  d :     0.012016
      dxz     :     0.000915
      dyz     :     0.002713
      dx2y2   :     0.001202
      dxy     :     0.002240
      f0      :    -0.000052  f :    -0.000720
      f+1     :     0.000051
      f-1     :     0.000330
      f+2     :    -0.000277
      f-2     :    -0.000291
      f+3     :    -0.000274
      f-3     :    -0.000208
  2 H s       :     0.581110  s :     0.581110
      pz      :     0.041229  p :     0.087360
      px      :     0.016676
      py      :     0.029454
      dz2     :     0.000712  d :     0.014542
      dxz     :     0.007439
      dyz     :     0.001339
      dx2y2   :     0.002425
      dxy     :     0.002626
      f0      :     0.000133  f :    -0.000189
      f+1     :    -0.000013
      f-1     :     0.000046
      f+2     :     0.000217
      f-2     :    -0.000152
      f+3     :    -0.000337
      f-3     :    -0.000082
  3 O s       :     3.870520  s :     3.870520
      pz      :     1.778906  p :     4.703838
      px      :     1.325222
      py      :     1.599710
      dz2     :     0.004169  d :     0.032775
      dxz     :     0.002982
      dyz     :     0.006181
      dx2y2   :     0.002097
      dxy     :     0.017346
      f0      :     0.000657  f :     0.003798
      f+1     :     0.000684
      f-1     :     0.000276
      f+2     :     0.000056
      f-2     :     0.000928
      f+3     :     0.000093
      f-3     :     0.001104
      g0      :     0.000047  g :     0.000539
      g+1     :     0.000020
      g-1     :     0.000038
      g+2     :     0.000023
      g-2     :     0.000067
      g+3     :     0.000049
      g-3     :     0.000065
      g+4     :     0.000099
      g-4     :     0.000130
  4 H s       :     0.588552  s :     0.588552
      pz      :     0.040435  p :     0.087092
      px      :     0.022470
      py      :     0.024187
      dz2     :     0.005271  d :     0.012586
      dxz     :     0.001814
      dyz     :     0.001821
      dx2y2   :     0.002001
      dxy     :     0.001679
      f0      :    -0.000007  f :    -0.000573
      f+1     :     0.000054
      f-1     :     0.000342
      f+2     :    -0.000400
      f-2     :    -0.000046
      f+3     :    -0.000263
      f-3     :    -0.000253
  5 H s       :     0.597124  s :     0.597124
      pz      :     0.044554  p :     0.091570
      px      :     0.020695
      py      :     0.026321
      dz2     :    -0.000083  d :     0.012667
      dxz     :     0.006840
      dyz     :     0.002071
      dx2y2   :     0.002388
      dxy     :     0.001450
      f0      :     0.000044  f :    -0.000594
      f+1     :    -0.000150
      f-1     :     0.000023
      f+2     :    -0.000085
      f-2     :     0.000303
      f+3     :    -0.000437
      f-3     :    -0.000291


                     *******************************
                     * LOEWDIN POPULATION ANALYSIS *
                     *******************************

------------------------
LOEWDIN FRAGMENT CHARGES
------------------------
 Fragment   0 :  -0.001999
 Fragment   1 :   0.001999

----------------------------
LOEWDIN FRAGMENT BOND ORDERS
----------------------------
                  0          1    
      0      19.246563   0.009873
      1       0.009873  19.237081

----------------------
LOEWDIN ATOMIC CHARGES
----------------------
   0 O :    1.568584
   1 H :   -0.809321
   2 H :   -0.761262
   3 O :    1.569117
   4 H :   -0.758244
   5 H :   -0.808874

-------------------------------
LOEWDIN REDUCED ORBITAL CHARGES
-------------------------------
  0 O s       :     2.891275  s :     2.891275
      pz      :     1.202510  p :     3.450680
      px      :     1.141236
      py      :     1.106934
      dz2     :     0.005318  d :     0.069540
      dxz     :     0.005296
      dyz     :     0.014401
      dx2y2   :     0.026633
      dxy     :     0.017891
      f0      :     0.003368  f :     0.017168
      f+1     :     0.001851
      f-1     :     0.001342
      f+2     :     0.003477
      f-2     :     0.001389
      f+3     :     0.001642
      f-3     :     0.004099
      g0      :     0.000192  g :     0.002754
      g+1     :     0.000214
      g-1     :     0.000291
      g+2     :     0.000204
      g-2     :     0.000157
      g+3     :     0.000282
      g-3     :     0.000568
      g+4     :     0.000154
      g-4     :     0.000692
  1 H s       :     0.585304  s :     0.585304
      pz      :     0.190562  p :     0.584752
      px      :     0.155968
      py      :     0.238222
      dz2     :     0.077806  d :     0.434087
      dxz     :     0.039731
      dyz     :     0.111568
      dx2y2   :     0.080185
      dxy     :     0.124795
      f0      :     0.012037  f :     0.205178
      f+1     :     0.002607
      f-1     :     0.057421
      f+2     :     0.027544
      f-2     :     0.039277
      f+3     :     0.044768
      f-3     :     0.021525
  2 H s       :     0.572768  s :     0.572768
      pz      :     0.157263  p :     0.558662
      px      :     0.249207
      py      :     0.152192
      dz2     :     0.041846  d :     0.425099
      dxz     :     0.110047
      dyz     :     0.034493
      dx2y2   :     0.132988
      dxy     :     0.105725
      f0      :     0.023332  f :     0.204733
      f+1     :     0.026048
      f-1     :     0.007775
      f+2     :     0.022654
      f-2     :     0.029609
      f+3     :     0.066366
      f-3     :     0.028949
  3 O s       :     2.890550  s :     2.890550
      pz      :     1.211128  p :     3.450727
      px      :     1.058241
      py      :     1.181358
      dz2     :     0.007396  d :     0.069726
      dxz     :     0.008848
      dyz     :     0.007069
      dx2y2   :     0.010069
      dxy     :     0.036344
      f0      :     0.002292  f :     0.017126
      f+1     :     0.002923
      f-1     :     0.001190
      f+2     :     0.000528
      f-2     :     0.004162
      f+3     :     0.001133
      f-3     :     0.004897
      g0      :     0.000311  g :     0.002753
      g+1     :     0.000223
      g-1     :     0.000141
      g+2     :     0.000098
      g-2     :     0.000338
      g+3     :     0.000318
      g-3     :     0.000349
      g+4     :     0.000449
      g-4     :     0.000527
  4 H s       :     0.574060  s :     0.574060
      pz      :     0.182993  p :     0.555799
      px      :     0.174580
      py      :     0.198226
      dz2     :     0.076993  d :     0.423485
      dxz     :     0.072887
      dyz     :     0.070326
      dx2y2   :     0.119690
      dxy     :     0.083589
      f0      :     0.011896  f :     0.204901
      f+1     :     0.032681
      f-1     :     0.028368
      f+2     :     0.032942
      f-2     :     0.029286
      f+3     :     0.045735
      f-3     :     0.023993
  5 H s       :     0.585041  s :     0.585041
      pz      :     0.164754  p :     0.584527
      px      :     0.229894
      py      :     0.189879
      dz2     :     0.034847  d :     0.434101
      dxz     :     0.117545
      dyz     :     0.029855
      dx2y2   :     0.127179
      dxy     :     0.124676
      f0      :     0.029749  f :     0.205205
      f+1     :     0.016448
      f-1     :     0.008707
      f+2     :     0.017423
      f-2     :     0.029254
      f+3     :     0.071803
      f-3     :     0.031820


                      *****************************
                      * MAYER POPULATION ANALYSIS *
                      *****************************

  NA   - Mulliken gross atomic population
  ZA   - Total nuclear charge
  QA   - Mulliken gross atomic charge
  VA   - Mayer's total valence
  BVA  - Mayer's bonded valence
  FA   - Mayer's free valence

  ATOM       NA         ZA         QA         VA         BVA        FA
  0 O      8.6166     8.0000    -0.6166     1.9020     1.9020     0.0000
  1 H      0.7007     1.0000     0.2993     0.9847     0.9847     0.0000
  2 H      0.6828     1.0000     0.3172     0.9690     0.9690     0.0000
  3 O      8.6115     8.0000    -0.6115     1.9153     1.9153     0.0000
  4 H      0.6877     1.0000     0.3123     0.9719     0.9719     0.0000
  5 H      0.7008     1.0000     0.2992     0.9844     0.9844    -0.0000

  Mayer bond orders larger than 0.100000
B(  0-O ,  1-H ) :   0.9586 B(  0-O ,  2-H ) :   0.9437 B(  3-O ,  4-H ) :   0.9513 
B(  3-O ,  5-H ) :   0.9642 

-------
TIMINGS
-------

Total SCF time: 0 days 0 hours 0 min 7 sec 

Total time                  ....       7.729 sec
Sum of individual times     ....      12.321 sec  (159.4%)

Fock matrix formation       ....      11.742 sec  (151.9%)
  Split-RI-J                ....       1.751 sec  ( 14.9% of F)
  Chain of spheres X        ....       4.951 sec  ( 42.2% of F)
Diagonalization             ....       0.027 sec  (  0.4%)
Density matrix formation    ....       0.010 sec  (  0.1%)
Population analysis         ....       0.029 sec  (  0.4%)
Initial guess               ....       0.029 sec  (  0.4%)
Orbital Transformation      ....       0.000 sec  (  0.0%)
Orbital Orthonormalization  ....       0.019 sec  (  0.2%)
DIIS solution               ....       0.013 sec  (  0.2%)
SOSCF solution              ....       0.149 sec  (  1.9%)

Maximum memory used throughout the entire SCF-calculation: 94.5 MB


           ************************************************************
           *        Program running with 16 parallel MPI-processes    *
           *              working on a common directory               *
           ************************************************************


--------------------------------------------------------------------------------
                             ORCA-MATRIX DRIVEN CI
--------------------------------------------------------------------------------


Wavefunction type
-----------------
Correlation treatment                      ...      CCSD     
Single excitations                         ... ON
Orbital optimization                       ... OFF
Calculation of Z vector                    ... OFF
Calculation of Brueckner orbitals          ... OFF
Perturbative triple excitations            ... ON
Calculation of F12 correction              ... OFF
Frozen core treatment                      ... chemical core (4 el)
Reference Wavefunction                     ... RHF
  Internal Orbitals:     2 ...    9 (  8 MO's/ 16 electrons)
  Virtual  Orbitals:    10 ...  343 (334 MO's              )
Number of AO's                             ...    344
Number of electrons                        ...     20
Number of correlated electrons             ...     16

Algorithmic settings
--------------------
Integral transformation                    ... All integrals via the RI transformation
K(C) Formation                             ... RI-DLPNO
   PNO-Integral Storage                    ... ON DISK
   PNO occupation number cut-off           ... 1.000e-07
   Singles PNO occupation number cut-off   ... 3.000e-09
   PNO Mulliken prescreening cut-off       ... 1.000e-03
   Domain cut-off (Mulliken population)    ... 1.000e-03
   PNO Normalization                       ...    1
Maximum number of iterations               ...        50
Convergence tolerance (max. residuum)      ... 1.000e-06
Level shift for amplitude update           ... 2.000e-01
Maximum number of DIIS vectors             ...         7
DIIS turned on at iteration                ...         0
Damping before turning on DIIS             ...     0.500
Damping after turning on DIIS              ...     0.000
Pair specific amplitude update             ... OFF
Natural orbital iterations                 ... OFF
Perturbative natural orbital generation    ... OFF
Printlevel                                 ... 3

Singles Fock matrix elements calculated using PNOs.

Memory handling:
----------------
Maximum memory for working arrays          ...   6000 MB
Data storage in matrix containers          ... UNCOMPRESSED
Data type for integral storage             ... DOUBLE
In-Core Storage of quantities:
   Amplitudes+Sigma Vector      ... NO
   J+K operators                ... NO
   DIIS vectors                 ... NO
   3-external integrals         ... NO
   4-external integrals         ... NO

Localization treatment:
-----------------------
Localization option                        ...    6
Localization threshhold                    ... -1.0e+00
Using relative localization threshhold     ... 1.0e-08
Neglect threshold for strong pairs         ... 1.000e-05 Eh
Prescreening threshold for very weak pairs ... 1.000e-07 Eh

Initializing the integral package          ... done
Localizing the valence orbitals
Localizing the valence orbitals
------------------------------------------------------------------------------
                           ORCA ORBITAL LOCALIZATION
------------------------------------------------------------------------------

Input orbitals are from                  ... frag61.gbw
Output orbitals are to                   ... frag61.loc
Max. number of iterations                ... 128
Localizations seeded randomly            ... off
Convergence tolerance                    ... 2.000e-07
Using relative localization threshhold   ... 1.000e-08
Threshold for strong local MOs           ... 9.500e-01
Threshold for bond MOs                   ... 8.500e-01
Operator                                 ... 0
Orbital range for localization           ... 2 to 9
Localization criterion                   ... FOSTER-BOYS (AUGMENTED HESSIAN)
Doing the dipole integrals     ... o.k.
Initial value of the localization sum :   233.021500
ITERATION   0 : L=  236.4700700643 DL=  3.45e+00 (AVERGE_DL)=    0.3509461915 
ITERATION   1 : L=  236.8977636666 DL=  4.28e-01 (AVERGE_DL)=    0.1235911466 
ITERATION   2 : L=  236.9799508842 DL=  8.22e-02 (AVERGE_DL)=    0.0541780193 
ITERATION   3 : L=  236.9865264072 DL=  6.58e-03 (AVERGE_DL)=    0.0153244937 
ITERATION   4 : L=  236.9873076703 DL=  7.81e-04 (AVERGE_DL)=    0.0052822583 
ITERATION   5 : L=  236.9873977907 DL=  9.01e-05 (AVERGE_DL)=    0.0017940420 
ITERATION   6 : L=  236.9874074431 DL=  9.65e-06 (AVERGE_DL)=    0.0005871367 
ITERATION   7 : L=  236.9874084228 DL=  9.80e-07 (AVERGE_DL)=    0.0001870527 
LOCALIZATION SUM CONVERGED

------------------------------------------------------
AUGMENTED HESSIAN OPTIMIZATION OF FOSTER-BOYS ORBITALS
------------------------------------------------------

Spin operator:           0
Orbital window:          2 to 9
Number of iterations:    128
Gradient tolerance:      2.000e-07
Number of pairs:         28
Davidson threshold:      2000
Diagonalization method:  LAPACK
Iter:    0   L: 236.9874084228   Grad. norm: 9.729198e-04
   *** Likely close to a maximum now. ***
       Augmented Hessian eigenvalues:  2.14e-07 -1.28e+00 -1.29e+00 -3.21e+00 ... 
Iter:    1   L: 236.9874085296   Grad. norm: 8.197041e-08
LOCALIZATION HAS CONVERGED.

Eigenvalues of the Hessian:
  0 -1.276e+00
  1 -1.288e+00
  2 -3.207e+00
  3 -3.209e+00
  4 -4.686e+00
  5 -4.699e+00
  6 -5.336e+00
  7 -5.344e+00
  8 -7.206e+00
  9 -7.207e+00
    ...


--------------------------------------------------------------------------------
                    LOCALIZED MOLECULAR ORBITAL COMPOSITIONS
--------------------------------------------------------------------------------

The Mulliken populations for each LMO on each atom are computed
The LMO`s will be ordered according to atom index and type
  (A) Strongly localized MO`s have populations of >=0.950 on one atom
  (B) Two center bond orbitals have populations of >=0.850 on two atoms
  (C) Other MO`s are considered to be `delocalized`

FOUND  -   4 strongly local MO`s
       -   4 two center bond MO`s
       -   0 significantly delocalized MO`s

Rather strongly localized orbitals:
MO   5:   3O  -   1.002179
MO   4:   3O  -   0.998829
MO   3:   0O  -   1.003607
MO   2:   0O  -   1.003747
Bond-like localized orbitals:
MO   9:   5H  -   0.351346  and   3O  -   0.648638
MO   8:   4H  -   0.343787  and   3O  -   0.656638
MO   7:   2H  -   0.340264  and   0O  -   0.656344
MO   6:   1H  -   0.351217  and   0O  -   0.645210
Localized MO's were stored in: frag61.loc

Localizing the core orbitals
------------------------------------------------------------------------------
                           ORCA ORBITAL LOCALIZATION
------------------------------------------------------------------------------

Input orbitals are from                  ... frag61.loc
Output orbitals are to                   ... frag61.loc
Max. number of iterations                ... 128
Localizations seeded randomly            ... off
Convergence tolerance                    ... 2.000e-07
Using relative localization threshhold   ... 1.000e-08
Threshold for strong local MOs           ... 9.500e-01
Threshold for bond MOs                   ... 8.500e-01
Operator                                 ... 0
Orbital range for localization           ... 0 to 1
Localization criterion                   ... FOSTER-BOYS (AUGMENTED HESSIAN)
Doing the dipole integrals     ... o.k.
Initial value of the localization sum :    58.301303
ITERATION   0 : L=   58.3013025928 DL=  7.30e-09 (AVERGE_DL)=    0.0000854397 
LOCALIZATION SUM CONVERGED

------------------------------------------------------
AUGMENTED HESSIAN OPTIMIZATION OF FOSTER-BOYS ORBITALS
------------------------------------------------------

Spin operator:           0
Orbital window:          0 to 1
Number of iterations:    128
Gradient tolerance:      2.000e-07
Number of pairs:         1
Davidson threshold:      2000
Diagonalization method:  LAPACK
Iter:    0   L: 58.3013025928   Grad. norm: 5.012423e-18
   *** Likely close to a maximum now. ***
       Augmented Hessian eigenvalues:  8.65e-38 -2.90e+02
Iter:    1   L: 58.3013025928   Grad. norm: 2.646978e-23
LOCALIZATION HAS CONVERGED.

Eigenvalues of the Hessian:
  0 -2.904e+02


--------------------------------------------------------------------------------
                    LOCALIZED MOLECULAR ORBITAL COMPOSITIONS
--------------------------------------------------------------------------------

The Mulliken populations for each LMO on each atom are computed
The LMO`s will be ordered according to atom index and type
  (A) Strongly localized MO`s have populations of >=0.950 on one atom
  (B) Two center bond orbitals have populations of >=0.850 on two atoms
  (C) Other MO`s are considered to be `delocalized`

FOUND  -   2 strongly local MO`s
       -   0 two center bond MO`s
       -   0 significantly delocalized MO`s

Rather strongly localized orbitals:
MO   1:   3O  -   0.999511
MO   0:   0O  -   0.999400
Localized MO's were stored in: frag61.loc

Warning: reference  - re-canonicalizations have been set to INT 1 VIRT 1
Warning: internal orbitals are localized - no re-canonicalization of internal orbitals
Warning: UsePNO is turned on - no re-canonicalization of internal and virtual orbitals

--------------------------
CLOSED-SHELL FOCK OPERATOR
--------------------------

Restoring SHARK [2] ... ok
Entering RIJCOSX section for the Fock matrix
Trying to retrieve the full J-matrix              ... done
Updating the Fock matrix                          ... done
Making the frozen core Coulomb matrix             ... SHARKdone
Retrieving the full K-matrix                      ... done
Calculating the frozen core K-matrix              ... done
Updating the Fock matrix                          ... done
Time needed for Fock operator              ...            1.475 sec
Reference energy                           ...   -152.130312025

--------------
DLPNO SETTINGS (2015 fully linear scaling implementation)
--------------

TCutMKN:           1.000e-03
TCutPAO:           1.000e-03
TCutPNO:           1.000e-07
TCutPNOSingles:    3.000e-09
TCutEN:            9.700e-01
TCutPAOExt:        1.000e-01
TCutPairs:         1.000e-05
TCutPre:           1.000e-07
TCutOSV:           1.000e-06
TCutDOij:          1.000e-05
TCutDO:            5.000e-03
TCutC:             1.000e-04
TCutCPAO:          1.000e-03
TCutCMO:           1.000e-03
TScaleDOMP2PreScr: 2.000e+00
TScaleMKNMP2PreScr:1.000e+01
TScalePNOMP2PreScr:1.000e+00
PAO overlap thresh 1.000e-08
Using PNOs for Singles Fock computation
Use new domains
Use fully linear algorithm
TCutTNO:           1.000e-09
TCutMP2Pairs:      1.000e-06
TCutDOStrong:      1.000e-02
TCutDOWeak:        2.000e-02
TCutMKNStrong:     1.000e-02
TCutMKNWeak:       1.000e-01
NTCutTNO:          1

--------------------------
Mulliken population of the LMOs            ... ok
Performing proximity check                 ... 
 found 1 problematic atoms
   => In all likelyhood your results will be entirely fine!
   => In case you don't want to trust it, decrease TCutMKN to below 0.00048364.
   => but note that this is probably not necessary but will increase execution time
Calculating differential overlap integrals ... ok

--------------------------
ELECTRON PAIR PRESCREENING
--------------------------

Dipole-based pair screening          .... used

   TCutDOij = 1.000000e-05
   TCutPre  = 1.000000e-07
   .... Finished loop over pairs
Total time spent in the prescreening                  ...     0.000 sec
Time for pair-prescreening                            ...     0.000 sec
Time for pairlist organization                        ...     0.000 sec
Number of pairs skipped by pre-screening              ... 0
sum of pair energies estimated for screened out pairs ...       0.000000000000 Eh
Thresholds for map construction and integral transformation for crude MP2:
   TCutMKN                    ...     1.0e-02
   TCutDO                     ...     1.0e-02
   TCutPairs                  ...     1.0e-05
   TCutPNO_CrudeMP2           ...     1.0e-07
   TCutPNOSingles_CrudeMP2    ...     3.0e-09
--------------------------------
LOCAL RI TRANSFORMATION (IAVPAO)
--------------------------------

Orbital window:       2 to 9
Number of PAOs:     344
Basis functions:    344 (96 shells)
Aux. functions:    1664 (316 shells)
Use SHARK:           on

Processing maps (0.0 sec)
Average map sizes:
   Aux shells -> MOs               8.0
   Aux shells -> PAOs            344.0
   MOs        -> AO shells        90.8
   PAOs       -> AO shells        96.0

Calculating integrals (0.6 sec, 34.957 MB)
Sorting integrals (0.1 sec, 34.938 MB)
Total time for the integral transformation: 0.7 sec
--------------------------------
INITIAL GUESS AND PNO GENERATION
--------------------------------

Populations of internal orbitals onto Fragments:
   2:      1.008    0.000  assigned to fragment   1
   3:      1.007    0.000  assigned to fragment   1
   4:      0.000    1.000  assigned to fragment   2
   5:      0.000    1.004  assigned to fragment   2
   6:      1.000    0.000  assigned to fragment   1
   7:      1.000    0.000  assigned to fragment   1
   8:      0.000    1.001  assigned to fragment   2
   9:      0.000    1.000  assigned to fragment   2

Summary assignment:
   4 orbitals assigned to fragment   1
   4 orbitals assigned to fragment   2

PNO truncation parameters                   .... 
    PAOOverlapThresh   =        1.000e-08

    TCutPairs          =        1.000e-05
    TCutPNO            =        1.000e-07
    TCutPNOSingles     =        3.000e-09
    TCutMP2Pairs       =        1.000e-06
    TCutMKN            =        1.000e-02
    TCutDO             =        1.000e-02

Pair selection                          .... not used
Type of local MP2 treatment                 .... semi-local MP2
Strategy for PNO selection                  .... occupation number selection
Pair density normalization                  .... MP2 norm
Spin component scaling                      .... not used

   .... Finished loop over pairs
Making pair pair interaction lists          ... 
Pair pair interaction statistics
Nr. of pairs:                        24
Nr. of Singles:                       8
Average (per pair domain)               (Total):
Atoms:                              5.5 (6)
PNOs:                               7.1
PAOs:                  316.8 (344)
Aux functions:                    627.2 (1664)
AuxAtoms:                           2.0 (6)
EXT1 basis functions:             344.0 (344)
Interacting Pairs:                  2.0 (24)
Interacting Pairs - Singles:        8.0 (8)
Average (per Single domain):
Atoms (Singles):                    5.1 (6)
PNOs (Singles):                   123.2
Basis functions (Singles):        295.2 (344)
Interacting Singles - Singles:      8.0 (8)
Interacting Singles - Pairs:       24.0 (24)
done

                       ===========================
                         24 OF   36 PAIRS ARE KEPT CCSD PAIRS
                         12 OF   36 PAIRS ARE KEPT MP2 PAIRS FOR (T)
                          0 OF   36 PAIRS ARE SKIPPED
                       ===========================

Total time spent in the initial guess                 ...     0.397 sec
Pair domain construction                              ...     0.000 sec
Time for calculating MP2 Guess in PAOs                ...     0.109 sec
     Time for Local metric generation                 ...     0.000 sec
     Time for Local Kij generation                    ...     0.034 sec
     Time for Local MP2 calculation                   ...     0.002 sec
     Time for LMP2 iterations                         ...     0.000 sec
          prep and other time                         ...     0.000 sec
          Time for sigma                              ...     0.000 sec (    0.000 sec in k-loop)
          Time for DIIS                               ...     0.000 sec
          Time for Update                             ...     0.000 sec
      Time for LMP2 I/O                               ...     0.000 sec
      Time for Initial PNO                            ...     0.000 sec
Time for generating PNOs                              ...     0.016 sec
Time for pairlist organization                        ...     0.000 sec
Time for pair-pair interaction organization           ...     0.001 sec
Size of the domain VM**-1/2 file                      ...         0 MB
SL-MP2 correlation energy (all non-screened pairs)    ...      -0.557649374476 Eh

Initial PNO correlation energy                        ...      -0.557274333820 Eh
sum of pair energies prescreened and skipped MP2 pairs...       0.000000000000 Eh
sum of pair energies of crude MP2 skipped pairs only  ...       0.000000000000 Eh
sum of MP2 pair energies for pairs that were not kept ...      -0.000075663515 Eh
sum of PNO error estimates for the kept pairs         ...      -0.000299377141 Eh
                                                          --------------------
sum of all corrections                                         -0.000375040656
Initial total correlation energy                               -0.557649374476
Thresholds for map construction and integral transformation for fine MP2 and CCSD(T) calculation:
   TCutMKN   ...     1.0e-03
   TCutDO    ...     5.0e-03
   TCutPairs ...     1.0e-05
   TCutCMO   ...     1.0e-03
   TCutCPAO  ...     1.0e-03

Thresholds for map construction and integral transformation for strong Triples:
   TCutMKN   ...     1.0e-02
   TCutDO    ...     1.0e-02
   TCutCMO   ...     1.0e-03
   TCutCPAO  ...     1.0e-03

Thresholds for map construction and integral transformation for weak Triples:
   TCutMKN   ...     1.0e-01
   TCutDO    ...     2.0e-02
   TCutCMO   ...     1.0e-03
   TCutCPAO  ...     1.0e-03

--------------------------------
LOCAL RI TRANSFORMATION (IAVPAO)
--------------------------------

Orbital window:       2 to 9
Number of PAOs:     344
Basis functions:    344 (96 shells)
Aux. functions:    1664 (316 shells)
Use SHARK:           on

Processing maps (0.0 sec)
Average map sizes:
   Aux shells -> MOs               8.0
   Aux shells -> PAOs            344.0
   MOs        -> AO shells        90.8
   PAOs       -> AO shells        96.0

Calculating integrals (0.6 sec, 34.957 MB)
Sorting integrals (0.1 sec, 34.938 MB)
Total time for the integral transformation: 0.6 sec
--------------------------------
INITIAL GUESS AND PNO GENERATION
--------------------------------

Populations of internal orbitals onto Fragments:
   2:      1.008    0.000  assigned to fragment   1
   3:      1.007    0.000  assigned to fragment   1
   4:      0.000    1.000  assigned to fragment   2
   5:      0.000    1.004  assigned to fragment   2
   6:      1.000    0.000  assigned to fragment   1
   7:      1.000    0.000  assigned to fragment   1
   8:      0.000    1.001  assigned to fragment   2
   9:      0.000    1.000  assigned to fragment   2

Summary assignment:
   4 orbitals assigned to fragment   1
   4 orbitals assigned to fragment   2

PNO truncation parameters                   .... 
    ScaleTCutPNO       =        1.000e-02
    PAOOverlapThresh   =        1.000e-08

    TCutPairs          =        1.000e-05
    TCutPNO            =        1.000e-07
    TCutPNOSingles     =        3.000e-09
    TCutMP2Pairs       =        1.000e-06
    TCutMKN            =        1.000e-03
    TCutDO             =        5.000e-03

Pair selection                          .... not used
Type of local MP2 treatment                 .... full local PMP2
Strategy for PNO selection                  .... occupation number selection
Pair density normalization                  .... MP2 norm
Spin component scaling                      .... not used

PASS-1: Formation of initial guess LMP2 amplitudes
Initial amplitudes guess done. Entering LMP2 iteration loop:
   Max. no of iterations          ...  50
   Energy convergence tolerance   ...    1.0e-07
   Residual convergence tolerance ...    5.0e-07
   Fock matrix cutoff             ...    1.0e-05 Eh
   DIIS convergence acceleration parameters:
        Max # vectors in DIIS     ... 7
        Start iteration of DIIS   ... 0
        Levelshift                ... 2.000e-01
        Damping factor 1          ... 5.000e-01
        Damping factor 2          ... 1.000e+00
   L-MP2 PNO cut-off              ...   1.0e-09
   L-MP2 PNO cut-off (core)       ...   1.0e-11
486 of 504 terms in k-loop evaluated.

                           *** Turning on DIIS ***
LMP2-Iter=   0:  ELMP2= -0.567651804387  DE=   1.0e-02 RMAX=   4.5e-03
LMP2-Iter=   1:  ELMP2= -0.573086734059  DE=   5.4e-03 RMAX=   2.5e-03
LMP2-Iter=   2:  ELMP2= -0.573866866888  DE=   7.8e-04 RMAX=   5.1e-04
LMP2-Iter=   3:  ELMP2= -0.573973756617  DE=   1.1e-04 RMAX=   1.6e-04
LMP2-Iter=   4:  ELMP2= -0.573982330087  DE=   8.6e-06 RMAX=   2.1e-05
LMP2-Iter=   5:  ELMP2= -0.573982284891  DE=   4.5e-08 RMAX=   5.6e-06
LMP2-Iter=   6:  ELMP2= -0.573982246203  DE=   3.9e-08 RMAX=   5.6e-07
LMP2-Iter=   7:  ELMP2= -0.573982238404  DE=   7.8e-09 RMAX=   1.7e-07
LMP2-Iter=   8:  ELMP2= -0.573982241797  DE=   3.4e-09 RMAX=   2.0e-08 => CONVERGED
PASS-2: Formation of Pair natural orbitals
   .... Finished loop over pairs
Process  1:   (    4,     2):  97.645408772428 %
Process  1:   (    4,     3):  97.883495259303 %
Process  1:   (    4,     4):  99.986236335184 %
Process  1:   (    4):  99.999679882791 % (IJ)
Process  2:   (    5,     2):  98.563314509113 %
Process  2:   (    5,     3):  99.199525667033 %
Process  2:   (    5,     4):  99.988913832658 %
Process  3:   (    5,     5):  99.986264292190 %
Process  3:   (    6,     2):  99.989256843305 %
Process  3:   (    6,     3):  99.989241647630 %
Process  3:   (    5):  99.999686230147 % (IJ)
Process  4:   (    6,     4):  98.399540064452 %
[...]
    i   j  type :        EP         (%)         Direct-            Single             Double         PNO in Mulliken                   
                                           Double Excitation     Charge-Transfer    Charge-Transfer  population range                   
                                                                                                      <0.7   >0.7                       
----------------------------------------------------------------------------------------------------------------------------------------
MAXIMUM NO OF ITERATIONS EXCEEDED - LOCALIZATION NOT CONVERGED
    7     7  :     -0.033549999 ( 11.61)      -0.033549999      0.000000000      0.000000000       0      85
    6     6  :     -0.033221117 ( 11.50)      -0.033221117      0.000000000      0.000000000       0      85
    3     2  :     -0.031341897 ( 10.84)      -0.031341897      0.000000000      0.000000000       0      91
    2     2  :     -0.028181306 (  9.75)      -0.028181306      0.000000000      0.000000000       0      79
    3     3  :     -0.028177775 (  9.75)      -0.028177775      0.000000000      0.000000000       0      80
    7     3  :     -0.027776043 (  9.61)      -0.027776043      0.000000000      0.000000000       0      95
    7     2  :     -0.027770737 (  9.61)      -0.027770737      0.000000000      0.000000000       0      95
    6     3  :     -0.027648204 (  9.57)      -0.027648204      0.000000000      0.000000000       0      95
    6     2  :     -0.027646476 (  9.57)      -0.027646476      0.000000000      0.000000000       0      95
    7     6  :     -0.023687314 (  8.20)      -0.023687314      0.000000000      0.000000000       0      96

Overall summary of excitation mechanisms for this fragment:
  Total direct double excitations (i->a(ij))(j->b(ij))                      -0.289000867 (100.000 per cent)
  Total single charge-transfer    (i->a(ij))(j->b(X)) & (i->a(X))(j->b(ij))  0.000000000 (-0.000 per cent)
  Total double charge transfer    (i->a(X))(j->b(X))                         0.000000000 (-0.000 per cent)
                                                       -----------------------------
  Sum                                                  -0.289000867
  Consistency check                                    -0.289000867
 done 
 
FRAGMENT    2 =  -0.288956115586 Eh ...   

----------------------------------------------------------------------------------------------------------------------------------------
    i   j  type :        EP         (%)         Direct-            Single             Double         PNO in Mulliken                   
                                           Double Excitation     Charge-Transfer    Charge-Transfer  population range                   
                                                                                                      <0.7   >0.7                       
----------------------------------------------------------------------------------------------------------------------------------------
MAXIMUM NO OF ITERATIONS EXCEEDED - LOCALIZATION NOT CONVERGED
    8     8  :     -0.033577112 ( 11.62)      -0.033577112      0.000000000      0.000000000       0      85
    9     9  :     -0.033190127 ( 11.49)      -0.033190127      0.000000000      0.000000000       0      85
    5     4  :     -0.031373920 ( 10.86)      -0.031373920      0.000000000      0.000000000       0      91
    4     4  :     -0.028176478 (  9.75)      -0.028176478      0.000000000      0.000000000       0      79
    5     5  :     -0.028171988 (  9.75)      -0.028171988      0.000000000      0.000000000       0      79
    8     5  :     -0.027784261 (  9.62)      -0.027784261      0.000000000      0.000000000       0      95
    8     4  :     -0.027776757 (  9.61)      -0.027776757      0.000000000      0.000000000       0      95
    9     5  :     -0.027632178 (  9.56)      -0.027632178      0.000000000      0.000000000       0      95
    9     4  :     -0.027623882 (  9.56)      -0.027623882      0.000000000      0.000000000       0      95
    9     8  :     -0.023649412 (  8.18)      -0.023649412      0.000000000      0.000000000       0      96

Overall summary of excitation mechanisms for this fragment:
  Total direct double excitations (i->a(ij))(j->b(ij))                      -0.288956116 (100.000 per cent)
  Total single charge-transfer    (i->a(ij))(j->b(X)) & (i->a(X))(j->b(ij))  0.000000000 (-0.000 per cent)
  Total double charge transfer    (i->a(X))(j->b(X))                         0.000000000 (-0.000 per cent)
                                                       -----------------------------
  Sum                                                  -0.288956116
  Consistency check                                    -0.288956116
 done 
 
 

Decomposition of the inter-fragments strong pairs energies .. 

FRAGMENTS    2,1 =  -0.000069819936 Eh ...   

------------------------------------------------------------------------------------------------------------------------------------------------
    i   j  type :         EP        (%)         Dipole-            Cross              Charge        Charge          PNO in Mulliken            
                                                 Dipole           Excitation          Transfer      Transfer        population range            
                                                                                                                      <0.7  >0.7                
------------------------------------------------------------------------------------------------------------------------------------------------
    4     7  :     -0.000028445 ( 40.74)      -0.000027976     -0.000000113     -0.000000122     -0.000000234       0       6
    5     7  :     -0.000014562 ( 20.86)      -0.000014480     -0.000000020     -0.000000019     -0.000000044       0       6
    4     2  :     -0.000014034 ( 20.10)      -0.000013744     -0.000000087     -0.000000105     -0.000000099       0       6
    9     7  :     -0.000012779 ( 18.30)      -0.000012683     -0.000000005     -0.000000009     -0.000000082       0       6
----------------------------------------------------------------------------------------------------------------------------------------------------------
                   -0.000069820               -0.000068882     -0.000000225     -0.000000255     -0.000000458 
                                                 ( 98.66%)        (  0.32%)        (  0.37%)        (  0.66%)
----------------------------------------------------------------------------------------------------------------------------------------------------------

Overall summary of excitation mechanisms for this fragment pair:
  Total local dipole excitations    (i->a(i))(j->b(j)) -0.000068882 (98.656 per cent)
  Total Cross excitations           (i->a(j))(j->b(i)) -0.000000225 ( 0.322 per cent)
  Total Charge transfer excitations (i->a(i))(j->b(i)) -0.000000255 ( 0.365 per cent)
  Total Charge transfer excitations (i->a(j))(j->b(j)) -0.000000458 ( 0.656 per cent)
                                                       -----------------------------
  Sum                                                  -0.000069820
  Consistency check                                    -0.000069820
 done 
 
 
Summary Strong Pairs Energy Decomposition    
 
Intra fragment contributions: 
INTRA Fragment 1                       -0.289000867 
INTRA Fragment 2                       -0.288956116 

Charge transfer contributions: 
Charge Transfer 1 to 2                 -0.000000255 
Charge Transfer 2 to 1                 -0.000000458 

Dispersion contributions: 
Dispersion  2,1                        -0.000069107 

Singles contributions:                   
Singles energy                         -0.000002509 
 

------------------------------------------------- 
FINAL SUMMARY DLPNO-CCSD ENERGY DECOMPOSITION (Eh)
------------------------------------------------- 
 
Intrafragment REF. energy:                   
Intra fragment   1 (REF.)              -76.064231325     
Intra fragment   2 (REF.)              -76.064256800     

Interaction of fragments  2 and  1:  
Electrostatics (REF.)                  -0.001799622 
Exchange (REF.)                        -0.000024268 
Dispersion (strong pairs)              -0.000069107 
Dispersion (weak pairs)                -0.000087904 

Sum of non dispersive correlation terms: 
Non dispersion (strong pairs)          -0.577960206  
Non dispersion (weak pairs)            -0.000286805  

#Time for LED analysis ..       7.6 (sec)



--------------------------------------------------------------------------------
                                    TIMINGS
--------------------------------------------------------------------------------


Total execution time                   ...      145.594 sec

Localization of occupied MO's          ...        0.303 sec (  0.2%)
Fock Matrix Formation                  ...        1.475 sec (  1.0%)
Global overlap, Fock, MKN matrices     ...        0.325 sec (  0.2%)
Differential overlap integrals         ...        0.662 sec (  0.5%)
Organizing maps                        ...        0.017 sec (  0.0%)
RI 3-index integral generations        ...        2.940 sec (  2.0%)
RI-PNO integral transformation         ...       15.489 sec ( 10.6%)
Initial Guess                          ...        1.866 sec (  1.3%)
DIIS Solver                            ...        0.344 sec (  0.2%)
State Vector Update                    ...        0.008 sec (  0.0%)
Sigma-vector construction              ...       97.019 sec ( 66.6%)
  <D|H|D>(0-ext)                       ...        0.108 sec (  0.1% of sigma)
  <D|H|D>(2-ext Fock)                  ...        0.003 sec (  0.0% of sigma)
  <D|H|D>(2-ext)                       ...        0.712 sec (  0.7% of sigma)
  <D|H|D>(4-ext)                       ...       20.025 sec ( 20.6% of sigma)
  <D|H|D>(4-ext-corr)                  ...       57.731 sec ( 59.5% of sigma)
  CCSD doubles correction              ...        0.013 sec (  0.0% of sigma)
  <S|H|S>                              ...        0.296 sec (  0.3% of sigma)
  <S|H|D>(1-ext)                       ...        0.024 sec (  0.0% of sigma)
  <D|H|S>(1-ext)                       ...        0.001 sec (  0.0% of sigma)
  <S|H|D>(3-ext)                       ...        0.254 sec (  0.3% of sigma)
  Fock-dressing                        ...        3.715 sec (  3.8% of sigma)
  Singles amplitudes                   ...        0.087 sec (  0.1% of sigma)
  (ik|jl)-dressing                     ...        0.100 sec (  0.1% of sigma)
  (ij|ab),(ia|jb)-dressing             ...        0.332 sec (  0.3% of sigma)
  Pair energies                        ...        0.005 sec (  0.0% of sigma)
Total Time for computing (T)           ...       17.528 sec ( 12.0% of ALL)
Local Energy Decomposition             ...        7.579 sec (  5.2% of ALL)


Maximum memory used throughout the entire MDCI-calculation: 1573.1 MB

-------------------------   --------------------
FINAL SINGLE POINT ENERGY      -152.727715189026
-------------------------   --------------------


                            ***************************************
                            *     ORCA property calculations      *
                            ***************************************


  WARNING: The energy has been calculated at the MDCI level but the densities
           used in the property calculations are still SCF densities
           MDCI response densities have not been calculated 
           use %mdci Density linearized end
           or  %mdci Density unrelaxed end
           or  %mdci Density orbopt end

                                    ---------------------
                                    Active property flags
                                    ---------------------
   (+) Dipole Moment


------------------------------------------------------------------------------
                       ORCA ELECTRIC PROPERTIES CALCULATION
------------------------------------------------------------------------------

Dipole Moment Calculation                       ... on
Quadrupole Moment Calculation                   ... off
Polarizability Calculation                      ... off
GBWName                                         ... frag61.gbw
Electron density                                ... frag61.scfp
The origin for moment calculation is the CENTER OF MASS  = (-0.214257,  3.175160 -0.793286)

-------------
DIPOLE MOMENT
-------------
                                X             Y             Z
Electronic contribution:      0.19674       0.08831      -0.11232
Nuclear contribution   :     -1.06032      -0.51553       0.60341
                        -----------------------------------------
Total Dipole Moment    :     -0.86358      -0.42722       0.49109
                        -----------------------------------------
Magnitude (a.u.)       :      1.08141
Magnitude (Debye)      :      2.74873



--------------------
Rotational spectrum 
--------------------
 
Rotational constants in cm-1:     7.552581     0.090266     0.090000 
Rotational constants in MHz : 226420.693437  2706.111468  2698.132743 

 Dipole components along the rotational axes: 
x,y,z [a.u.] :     1.053614    -0.155086     0.187869 
x,y,z [Debye]:     2.678075    -0.394198     0.477524 

 

--------------------------------
SUGGESTED CITATIONS FOR THIS RUN
--------------------------------

Below you find a list of papers that are relevant to this ORCA run
We neither can nor want to force you to cite these paper, but we appreciate if you do
You receive ORCA, which is the product of a lot of hard work by many enthusiastic individuals, for free
The *only* thing we kindly ask in return is that you cite our papers,
We deeply appreciate it, if you show your appreciation for ORCA but *not* just citing the generic ORCA reference.

Please note that relegating all ORCA citations to the supporting information does *not* help us.
SI sections are not index - citations you put there will not count into our citation statistics
But we need these citations in order to attract the funding ressources that allow us to do what we are doing

Therefore, please consider citing at least a few of the papers listed below, if you are a happy ORCA user

In addition to the list printed below, the program has created the file frag61.bibtex that contains the list in bibtex format
In this format, you can import it easily in all common literature databanks and citation aid programs


List of essential papers. We consider these as the minimum necessary citations

  1. Neese,F.
     Software update: the ORCA program system, version 5.0
     WIRES Comput. Molec. Sci., 2022 12(1)e1606
     doi.org/10.1002/wcms.1606

List of papers to cite with high priority. The work reported in these papers was absolutely
necessary for this run to complete.
Our perspective: the developers of density functionals and basis sets usually get cited in chemistry papers
Good! But without the algorithms to do something with them, the functionals or basis sets would not do anything.
Hence, in our opinion, the algorithm design and method developments papers are equally worthy of getting cited

  1. Neese,F.
     An improvement of the resolution of the identity approximation for the formation of the Coulomb matrix
     J. Comp. Chem., 2003 24(14)1740-1747
     doi.org/10.1002/jcc.10318
  2. Neese,F.; Wennmohs,F.; Hansen,A.; Becker,U.
     Efficient, approximate and parallel Hartree-Fock and hybrid DFT calculations. A 'chain-of-spheres' algorithm for the Hartree-Fock exchange
     Chem. Phys., 2009 356(1-3)98-109
     doi.org/10.1016/j.chemphys.2008.10.036
  3. Neese,F.; Hansen,A.; Liakos,D.G.
     Efficient and accurate approximations to the local coupled cluster singles doubles method using a truncated pair natural orbital basis
     J. Chem. Phys., 2009 131 064103
     doi.org/10.1063/1.3173827
  4. Neese,F.; Wennmohs,F.; Hansen,A.
     Efficient and accurate local approximations to coupled-electron pair approaches: An attempt to revive the pair natural orbital method
     J. Chem. Phys., 2009 130 114108
     doi.org/10.1063/1.3086717
  5. Riplinger,C.; Neese,F.
     An efficient and near linear scaling pair natural orbital based local coupled cluster method
     J. Chem. Phys., 2013 138(3)Art. No. 034106
     doi.org/10.1063/1.4773581
  6. Riplinger,C.; Sandhoefer,B.; Hansen,A.; Neese,F.
     Natural triple excitations in local coupled cluster calculations with pair natural orbitals
     J. Chem. Phys., 2013 139(13)Art. No. 134101
     doi.org/10.1063/1.4821834
  7. Riplinger,C.; Pinski,P.; Becker,U.; Valeev,E.F.; Neese,F.
     Sparse maps-A systematic infrastructure for reduced-scaling electronic structure methods. II. Linear scaling domain based pair natural orbital coupled cluster theory
     J. Chem. Phys., 2016 144 
     doi.org/10.1063/1.4939030
  8. Schneider,W.B.; Bistoni,G.; Sparta,M.; Saitow,M.; Riplinger,C.; Auer,A.A.; Neese,F.
     Decomposition of Intermolecular Interaction Energies within the Local Pair Natural Orbital Coupled Cluster Framework
     J. Theo. Comp. Chem., 2016 12 4778-4792
     doi.org/10.1021/acs.jctc.6b00523
  9. Bistoni,G.; Riplinger,C.; Minenkov,Y.; Cavallo,L.; Auer,A.A.; Neese,F.
     Treating Subvalence Correlation Effects in Domain Based Pair Natural Orbital Coupled Cluster Calculations: An Out-of-the-Box Approach
     J. Theo. Comp. Chem., 2017 13 3220-3227
     doi.org/10.1021/acs.jctc.7b00352
 10. Guo,Y.; Riplinger,C.; Becker,U.; Liakos,D.G.; Minenkov,Y.; Cavallo,L.; Neese,F.
     Communication: An improved linear scaling perturbative triples correction for the domain based local pair-natural orbital based singles and doubles coupled cluster method DLPNO-CCSD(T)
     J. Chem. Phys., 2018 148 5
     doi.org/10.1063/1.5011798
 11. Helmich-Paris,B.; de Souza,B.; Neese,F.; Izsk,R.
     An improved chain of spheres for exchange algorithm
     J. Chem. Phys., 2021 155 104109
     doi.org/doi: 10.1063/5.0058766.

List of suggested additional citations. These are papers that are important in the 'surrounding' of 
of this run, or papers that preceded the highly important papers. If you like your results we are grateful for a citation.

  1. Izsak,R.; Neese,F.
     An overlap fitted chain of spheres exchange method
     J. Chem. Phys., 2011 135 144105
     doi.org/10.1063/1.3646921
  2. Izsak,R.; Hansen,A.; Neese,F.
     The resolution of identity and chain of spheres approximations for the LPNO-CCSD singles Fock term
     Molec. Phys., 2012 110 2413-2417
     doi.org/10.1080/00268976.2012.687466
  3. Neese,F.
     The ORCA program system
     WIRES Comput. Molec. Sci., 2012 2(1)73-78
     doi.org/10.1002/wcms.81
  4. Izsak,R.; Neese,F.; Klopper,W.
     Robust fitting techniques in the chain of spheres approximation to the Fock exchange: The role of the complementary space
     J. Chem. Phys., 2013 139 
     doi.org/10.1063/1.4819264
  5. Neese,F.
     Software update: the ORCA program system, version 4.0
     WIRES Comput. Molec. Sci., 2018 8(1)1-6
     doi.org/10.1002/wcms.1327
  6. Neese,F.; Wennmohs,F.; Becker,U.; Riplinger,C.
     The ORCA quantum chemistry program package
     J. Chem. Phys., 2020 152 Art. No. L224108
     doi.org/10.1063/5.0004608
  7. Bistoni,G.
     Finding chemical concepts in the Hilbert space: Coupled cluster analyses of noncovalent interactions
     WIRES Comput. Molec. Sci., 2020 10(3)e1442
     doi.org/10.1002/wcms.1442

Timings for individual modules:

Sum of individual times         ...      156.372 sec (=   2.606 min)
GTO integral calculation        ...        2.002 sec (=   0.033 min)   1.3 %
SCF iterations                  ...        8.199 sec (=   0.137 min)   5.2 %
MDCI module                     ...      146.171 sec (=   2.436 min)  93.5 %
                             ****ORCA TERMINATED NORMALLY****
TOTAL RUN TIME: 0 days 0 hours 2 minutes 37 seconds 64 msec