                                 *****************
                                 * O   R   C   A *
                                 *****************

                                            #,                                       
                                            ###                                      
                                            ####                                     
                                            #####                                    
                                            ######                                   
                                           ########,                                 
                                     ,,################,,,,,                         
                               ,,#################################,,                 
                          ,,##########################################,,             
                       ,#########################################, ''#####,          
                    ,#############################################,,   '####,        
                  ,##################################################,,,,####,       
                ,###########''''           ''''###############################       
              ,#####''   ,,,,##########,,,,          '''####'''          '####       
            ,##' ,,,,###########################,,,                        '##       
           ' ,,###''''                  '''############,,,                           
         ,,##''                                '''############,,,,        ,,,,,,###''
      ,#''                                            '''#######################'''  
     '                                                          ''''####''''         
             ,#######,   #######,   ,#######,      ##                                
            ,#'     '#,  ##    ##  ,#'     '#,    #''#        ######   ,####,        
            ##       ##  ##   ,#'  ##            #'  '#       #        #'  '#        
            ##       ##  #######   ##           ,######,      #####,   #    #        
            '#,     ,#'  ##    ##  '#,     ,#' ,#      #,         ##   #,  ,#        
             '#######'   ##     ##  '#######'  #'      '#     #####' # '####'        



                  #######################################################
                  #                        -***-                        #
                  #          Department of theory and spectroscopy      #
                  #    Directorship and core code : Frank Neese         #
                  #        Max Planck Institute fuer Kohlenforschung    #
                  #                Kaiser Wilhelm Platz 1               #
                  #                 D-45470 Muelheim/Ruhr               #
                  #                      Germany                        #
                  #                                                     #
                  #                  All rights reserved                #
                  #                        -***-                        #
                  #######################################################


                         Program Version 5.0  -  CURRENT   -
                                (GIT: $76ccee9ca$)
                ($2022-06-14 15:14:42 +0200 $)

                  !                     WARNING:                         !
                  !         This is a DEVELOPMENT version                !

                         (BUILD: $Mi 15. Jun 00:07:41 CEST 2022$)


 With contributions from (in alphabetic order):
   Daniel Aravena         : Magnetic Suceptibility
   Michael Atanasov       : Ab Initio Ligand Field Theory (pilot matlab implementation)
   Alexander A. Auer      : GIAO ZORA, VPT2 properties, NMR spectrum
   Ute Becker             : Parallelization
   Giovanni Bistoni       : ED, misc. LED, open-shell LED, HFLD
   Martin Brehm           : Molecular dynamics
   Dmytro Bykov           : SCF Hessian
   Vijay G. Chilkuri      : MRCI spin determinant printing, contributions to CSF-ICE
   Dipayan Datta          : RHF DLPNO-CCSD density
   Achintya Kumar Dutta   : EOM-CC, STEOM-CC
   Dmitry Ganyushin       : Spin-Orbit,Spin-Spin,Magnetic field MRCI
   Miquel Garcia          : C-PCM and meta-GGA Hessian, CC/C-PCM, Gaussian charge scheme
   Yang Guo               : DLPNO-NEVPT2, F12-NEVPT2, CIM, IAO-localization
   Andreas Hansen         : Spin unrestricted coupled pair/coupled cluster methods
   Benjamin Helmich-Paris : MC-RPA, TRAH-SCF, COSX integrals
   Lee Huntington         : MR-EOM, pCC
   Robert Izsak           : Overlap fitted RIJCOSX, COSX-SCS-MP3, EOM
   Marcus Kettner         : VPT2
   Christian Kollmar      : KDIIS, OOCD, Brueckner-CCSD(T), CCSD density, CASPT2, CASPT2-K, improved NEVPT2
   Simone Kossmann        : Meta GGA functionals, TD-DFT gradient, OOMP2, MP2 Hessian
   Martin Krupicka        : Initial AUTO-CI
   Lucas Lang             : DCDCAS
   Marvin Lechner         : AUTO-CI (C++ implementation), FIC-MRCC
   Dagmar Lenk            : GEPOL surface, SMD
   Dimitrios Liakos       : Extrapolation schemes; Compound Job, initial MDCI parallelization
   Dimitrios Manganas     : Further ROCIS development; embedding schemes
   Dimitrios Pantazis     : SARC Basis sets
   Anastasios Papadopoulos: AUTO-CI, single reference methods and gradients
   Taras Petrenko         : DFT Hessian,TD-DFT gradient, ASA, ECA, R-Raman, ABS, FL, XAS/XES, NRVS
   Peter Pinski           : DLPNO-MP2, DLPNO-MP2 Gradient
   Christoph Reimann      : Effective Core Potentials
   Marius Retegan         : Local ZFS, SOC
   Christoph Riplinger    : Optimizer, TS searches, QM/MM, DLPNO-CCSD(T), (RO)-DLPNO pert. Triples
   Tobias Risthaus        : Range-separated hybrids, TD-DFT gradient, RPA, STAB
   Michael Roemelt        : Original ROCIS implementation
   Masaaki Saitow         : Open-shell DLPNO-CCSD energy and density
   Barbara Sandhoefer     : DKH picture change effects
   Avijit Sen             : IP-ROCIS
   Kantharuban Sivalingam : CASSCF convergence, NEVPT2, FIC-MRCI
   Bernardo de Souza      : ESD, SOC TD-DFT
   Georgi Stoychev        : AutoAux, RI-MP2 NMR, DLPNO-MP2 response
   Willem Van den Heuvel  : Paramagnetic NMR
   Boris Wezisla          : Elementary symmetry handling
   Frank Wennmohs         : Technical directorship


 We gratefully acknowledge several colleagues who have allowed us to
 interface, adapt or use parts of their codes:
   Stefan Grimme, W. Hujo, H. Kruse, P. Pracht,  : VdW corrections, initial TS optimization,
                  C. Bannwarth, S. Ehlert          DFT functionals, gCP, sTDA/sTD-DF
   Ed Valeev, F. Pavosevic, A. Kumar             : LibInt (2-el integral package), F12 methods
   Garnet Chan, S. Sharma, J. Yang, R. Olivares  : DMRG
   Ulf Ekstrom                                   : XCFun DFT Library
   Mihaly Kallay                                 : mrcc  (arbitrary order and MRCC methods)
   Jiri Pittner, Ondrej Demel                    : Mk-CCSD
   Frank Weinhold                                : gennbo (NPA and NBO analysis)
   Christopher J. Cramer and Donald G. Truhlar   : smd solvation model
   Lars Goerigk                                  : TD-DFT with DH, B97 family of functionals
   V. Asgeirsson, H. Jonsson                     : NEB implementation
   FAccTs GmbH                                   : IRC, NEB, NEB-TS, DLPNO-Multilevel, CI-OPT
                                                   MM, QMMM, 2- and 3-layer-ONIOM, Crystal-QMMM,
                                                   LR-CPCM, SF, NACMEs, symmetry and pop. for TD-DFT,
                                                   nearIR, NL-DFT gradient (VV10), updates on ESD,
                                                   ML-optimized integration grids
   S Lehtola, MJT Oliveira, MAL Marques          : LibXC Library
   Liviu Ungur et al                             : ANISO software


 Your calculation uses the libint2 library for the computation of 2-el integrals
 For citations please refer to: http://libint.valeyev.net

 Your ORCA version has been built with support for libXC version: 5.2.2
 For citations please refer to: https://tddft.org/programs/libxc/

 This ORCA versions uses:
   CBLAS   interface :  Fast vector & matrix operations
   LAPACKE interface :  Fast linear algebra routines
   SCALAPACK package :  Parallel linear algebra routines
   Shared memory     :  Shared parallel matrices


================================================================================

----- Orbital basis set information -----
Your calculation utilizes the basis: aug-cc-pVQZ 
    H, B-Ne : Obtained from the ccRepo (grant-hill.group.shef.ac.uk/ccrepo) Feb. 2017
              R. A. Kendall, T. H. Dunning, Jr., R. J. Harrison, J. Chem. Phys. 96, 6796 (1992)
         He : Obtained from the ccRepo (grant-hill.group.shef.ac.uk/ccrepo) Feb. 2017
              D. E. Woon, T. H. Dunning, Jr., J. Chem. Phys. 100, 2975 (1994)
  Li-Be, Na : Obtained from the ccRepo (grant-hill.group.shef.ac.uk/ccrepo) Feb. 2017
              B. P. Prascher, D. E. Woon, K. A. Peterson, T. H. Dunning, Jr., A. K. Wilson, Theor. Chem. Acc. 128, 69 (2011)
         Mg : Obtained from the Peterson Research Group Website (tyr0.chem.wsu.edu/~kipeters) Feb. 2017
              B. P. Prascher, D. E. Woon, K. A. Peterson, T. H. Dunning, Jr., A. K. Wilson, Theor. Chem. Acc. 128, 69 (2011)
      Al-Ar : Obtained from the ccRepo (grant-hill.group.shef.ac.uk/ccrepo) Feb. 2017
              D. E. Woon, T. H. Dunning, Jr., J. Chem. Phys. 98, 1358 (1993)
      Sc-Zn : Obtained from the ccRepo (grant-hill.group.shef.ac.uk/ccrepo) Feb. 2017
              N. B. Balabanov, K. A. Peterson, J. Chem. Phys. 123, 064107 (2005)
              N. B. Balabanov, K. A. Peterson, J. Chem. Phys. 125, 074110 (2006)
      Ga-Kr : Obtained from the ccRepo (grant-hill.group.shef.ac.uk/ccrepo) Feb. 2017
              A. K. Wilson, D. E. Woon, K. A. Peterson, T. H. Dunning, Jr., J. Chem. Phys. 110, 7667 (1999)

----- AuxJ basis set information -----
----- AuxC basis set information -----
================================================================================
                                        WARNINGS
                       Please study these warnings very carefully!
================================================================================


WARNING: Post HF methods need fully converged wavefunctions
  ===> : Setting SCFConvForced true
         You can overwrite this default with %scf ConvForced false 


WARNING: MDCI localization with Augmented Hessian Foster-Boys
  ===> : Switching off randomization!

INFO   : the flag for use of the SHARK integral package has been found!

================================================================================
                                       INPUT FILE
================================================================================
NAME = frag31.inp
|  1> ! DLPNO-CCSD(T1) aug-cc-pVQZ DEFGRID3 RIJCOSX def2/J aug-cc-pV5Z/C verytightscf TightPNO LED
|  2> 
|  3> %pal nprocs 16 end
|  4> %maxcore 6000
|  5> %scf maxiter 999 end
|  6> %basis auxj "autoaux" auxc "autoaux" autoauxlmax true end
|  7> %mdci TCutPNO 1e-7 printlevel 3 end
|  8> 
|  9> * xyz 0 1
| 10> O(1)     0.012631031    -1.241255898     1.573836894
| 11> H(1)     0.908618001    -1.252949881     1.168524322
| 12> H(1)     0.168950409    -1.135399007     2.515952529
| 13> O(2)    -1.753042425     0.416462959     0.356105280
| 14> H(2)    -1.120933301    -0.183098298     0.812596940
| 15> H(2)    -2.593310567    -0.048459739     0.359102074
| 16> *
| 17> 
| 18>                          ****END OF INPUT****
================================================================================

                       ****************************
                       * Single Point Calculation *
                       ****************************

---------------------------------
CARTESIAN COORDINATES (ANGSTROEM)
---------------------------------
  O      0.012631   -1.241256    1.573837
  H      0.908618   -1.252950    1.168524
  H      0.168950   -1.135399    2.515953
  O     -1.753042    0.416463    0.356105
  H     -1.120933   -0.183098    0.812597
  H     -2.593311   -0.048460    0.359102

----------------------------
CARTESIAN COORDINATES (A.U.)
----------------------------
  NO LB      ZA    FRAG     MASS         X           Y           Z
   0 O     8.0000    1    15.999    0.023869   -2.345634    2.974121
   1 H     1.0000    1     1.008    1.717039   -2.367732    2.208191
   2 H     1.0000    1     1.008    0.319270   -2.145593    4.754461
   3 O     8.0000    2    15.999   -3.312770    0.787001    0.672941
   4 H     1.0000    2     1.008   -2.118257   -0.346006    1.535586
   5 H     1.0000    2     1.008   -4.900647   -0.091576    0.678605

----------------------------------------------
CARTESIAN COORDINATES OF FRAGMENTS (ANGSTROEM)
----------------------------------------------

 FRAGMENT 1 
  O     0.012631   -1.241256    1.573837
  H     0.908618   -1.252950    1.168524
  H     0.168950   -1.135399    2.515953

 FRAGMENT 2 
  O    -1.753042    0.416463    0.356105
  H    -1.120933   -0.183098    0.812597
  H    -2.593311   -0.048460    0.359102

--------------------------------
INTERNAL COORDINATES (ANGSTROEM)
--------------------------------
 O      0   0   0     0.000000000000     0.00000000     0.00000000
 H      1   0   0     0.983467173153     0.00000000     0.00000000
 H      1   2   0     0.960845096268   104.90307252     0.00000000
 O      1   2   3     2.710812580355   114.55370962   131.80503246
 H      4   1   2     0.983575254462     0.99438905   207.43459126
 H      4   1   2     0.960319033629   105.81067242   140.93140349

---------------------------
INTERNAL COORDINATES (A.U.)
---------------------------
 O      0   0   0     0.000000000000     0.00000000     0.00000000
 H      1   0   0     1.858483618961     0.00000000     0.00000000
 H      1   2   0     1.815734089067   104.90307252     0.00000000
 O      1   2   3     5.122693377260   114.55370962   131.80503246
 H      4   1   2     1.858687863034     0.99438905   207.43459126
 H      4   1   2     1.814739974751   105.81067242   140.93140349

---------------------
BASIS SET INFORMATION
---------------------
There are 2 groups of distinct atoms

 Group   1 Type O   : 22s7p4d3f2g contracted to 6s5p4d3f2g pattern {991111/31111/1111/111/11}
 Group   2 Type H   : 7s4p3d2f contracted to 5s4p3d2f pattern {31111/1111/111/11}

Atom   0O    basis set group =>   1
Atom   1H    basis set group =>   2
Atom   2H    basis set group =>   2
Atom   3O    basis set group =>   1
Atom   4H    basis set group =>   2
Atom   5H    basis set group =>   2
---------------------------------
AUXILIARY/J BASIS SET INFORMATION
---------------------------------
There are 2 groups of distinct atoms

 Group   1 Type O   : 16s14p13d7f7g5h3i3j contracted to 16s14p13d7f7g5h3i3j pattern {1111111111111111/11111111111111/1111111111111/1111111/1111111/11111/111/111}
 Group   2 Type H   : 15s7p6d5f5g4h3i contracted to 15s7p6d5f5g4h3i pattern {111111111111111/1111111/111111/11111/11111/1111/111}

Atom   0O    basis set group =>   1
Atom   1H    basis set group =>   2
Atom   2H    basis set group =>   2
Atom   3O    basis set group =>   1
Atom   4H    basis set group =>   2
Atom   5H    basis set group =>   2
---------------------------------
AUXILIARY/C BASIS SET INFORMATION
---------------------------------
There are 2 groups of distinct atoms

 Group   1 Type O   : 16s14p13d7f7g5h3i3j contracted to 16s14p13d7f7g5h3i3j pattern {1111111111111111/11111111111111/1111111111111/1111111/1111111/11111/111/111}
 Group   2 Type H   : 15s7p6d5f5g4h3i contracted to 15s7p6d5f5g4h3i pattern {111111111111111/1111111/111111/11111/11111/1111/111}

Atom   0O    basis set group =>   1
Atom   1H    basis set group =>   2
Atom   2H    basis set group =>   2
Atom   3O    basis set group =>   1
Atom   4H    basis set group =>   2
Atom   5H    basis set group =>   2

Checking for AutoStart:
The File: frag31.gbw exists
Trying to determine its content:
     ... Fine, the file contains calculation information
     ... Fine, the calculation information was read
     ... Fine, the file contains a basis set
     ... Fine, the basis set was read
     ... Fine, the file contains a geometry
     ... Fine, the geometry was read
     ... Fine, the file contains a set of orbitals
     ... Fine, the orbitals can be read
     => possible old guess file was deleted
     => GBW file was renamed to GES file
     => GES file is set as startup file
     => Guess is set to MORead
     ... now leaving AutoStart



           ************************************************************
           *        Program running with 16 parallel MPI-processes    *
           *              working on a common directory               *
           ************************************************************
------------------------------------------------------------------------------
                           ORCA GTO INTEGRAL CALCULATION
                           -- RI-GTO INTEGRALS CHOSEN --
------------------------------------------------------------------------------
------------------------------------------------------------------------------
                   ___                                                        
                  /   \      - P O W E R E D   B Y -                         
                 /     \                                                     
                 |  |  |   _    _      __       _____    __    __             
                 |  |  |  | |  | |    /  \     |  _  \  |  |  /  |          
                  \  \/   | |  | |   /    \    | | | |  |  | /  /          
                 / \  \   | |__| |  /  /\  \   | |_| |  |  |/  /          
                |  |  |   |  __  | /  /__\  \  |    /   |      \           
                |  |  |   | |  | | |   __   |  |    \   |  |\   \          
                \     /   | |  | | |  |  |  |  | |\  \  |  | \   \       
                 \___/    |_|  |_| |__|  |__|  |_| \__\ |__|  \__/        
                                                                              
                      - O R C A' S   B I G   F R I E N D -                    
                                      &                                       
                       - I N T E G R A L  F E E D E R -                       
                                                                              
 v1 FN, 2020, v2 2021                                                         
------------------------------------------------------------------------------


Reading SHARK input file frag31.SHARKINP.tmp ... ok
Calculating pre-screening integrals         ... done (  0.0 sec) Dimension = 110
Calculating pre-screening integrals (ORCA)  ... done (  0.1 sec) Dimension = 96
Organizing shell pair data                  ... done (  0.1 sec)
Shell pair information
Total number of shell pairs                 ...      6105
Shell pairs after pre-screening             ...      5716
Total number of primitive shell pairs       ...      7521
Primitive shell pairs kept                  ...      6772
          la=0 lb=0:    939 shell pairs
          la=1 lb=0:   1118 shell pairs
          la=1 lb=1:    345 shell pairs
          la=2 lb=0:    862 shell pairs
          la=2 lb=1:    508 shell pairs
          la=2 lb=2:    204 shell pairs
          la=3 lb=0:    593 shell pairs
          la=3 lb=1:    353 shell pairs
          la=3 lb=2:    274 shell pairs
          la=3 lb=3:    105 shell pairs
          la=4 lb=0:    165 shell pairs
          la=4 lb=1:    104 shell pairs
          la=4 lb=2:     80 shell pairs
          la=4 lb=3:     56 shell pairs
          la=4 lb=4:     10 shell pairs

Calculating one electron integrals          ... done (  0.0 sec)
Calculating RI/J V-Matrix + Cholesky decomp.... done (  0.6 sec)
Calculating RI/C V-Matrix + Cholesky decomp.... done (  0.6 sec)
Calculating Nuclear repulsion               ... done (  0.0 sec) ENN=     37.745126975382 Eh

SHARK setup successfully completed in   1.6 seconds

Maximum memory used throughout the entire GTOINT-calculation: 94.4 MB


           ************************************************************
           *        Program running with 16 parallel MPI-processes    *
           *              working on a common directory               *
           ************************************************************
-------------------------------------------------------------------------------
                                 ORCA SCF
-------------------------------------------------------------------------------

------------
SCF SETTINGS
------------
Hamiltonian:
 Ab initio Hamiltonian  Method          .... Hartree-Fock(GTOs)
 RI-approximation to the Coulomb term is turned on
   Number of AuxJ basis functions       .... 1664
   RIJ-COSX (HFX calculated with COS-X)).... on


General Settings:
 Integral files         IntName         .... frag31
 Hartree-Fock type      HFTyp           .... RHF
 Total Charge           Charge          ....    0
 Multiplicity           Mult            ....    1
 Number of Electrons    NEL             ....   20
 Basis Dimension        Dim             ....  344
 Nuclear Repulsion      ENuc            ....     37.7451269754 Eh

Convergence Acceleration:
 DIIS                   CNVDIIS         .... on
   Start iteration      DIISMaxIt       ....    12
   Startup error        DIISStart       ....  0.200000
   # of expansion vecs  DIISMaxEq       ....     5
   Bias factor          DIISBfac        ....   1.050
   Max. coefficient     DIISMaxC        ....  10.000
 Trust-Rad. Augm. Hess. CNVTRAH         .... auto
   Auto Start mean grad. ratio tolernc. ....  1.125000
   Auto Start start iteration           ....     1
   Auto Start num. interpolation iter.  ....    10
   Max. Number of Micro iterations      ....    24
   Max. Number of Macro iterations      .... Maxiter - #DIIS iter
   Max. Number of back steps            ....     5
   Number of Davidson start vectors     ....     2
   Converg. threshold I  (grad. norm)   ....   2.000e-06
   Converg. threshold II (energy diff.) ....   1.000e-09
   Grad. Scal. Fac. for Micro threshold ....   0.100
   Minimum threshold for Micro iter.    ....   1.000e-02
   NR start threshold (gradient norm)   ....   1.000e-04
   Initial trust radius                 ....   0.400
   Minimum AH scaling param. (alpha)    ....   1.000
   Maximum AH scaling param. (alpha)    .... 1000.000
   Inactive MOs                         .... canonicalized
   Orbital update algorithm             .... Taylor
   White noise on init. David. guess    .... on
   Maximum white noise                  ....   0.010
   Quad. conv. algorithm                .... NR
   Preconditioner                       .... approx. diagonal
 SOSCF                  CNVSOSCF        .... on
   Start iteration      SOSCFMaxIt      ....   150
   Startup grad/error   SOSCFStart      ....  0.003300
 Level Shifting         CNVShift        .... on
   Level shift para.    LevelShift      ....    0.2500
   Turn off err/grad.   ShiftErr        ....    0.0010
 Zerner damping         CNVZerner       .... off
 Static damping         CNVDamp         .... on
   Fraction old density DampFac         ....    0.7000
   Max. Damping (<1)    DampMax         ....    0.9800
   Min. Damping (>=0)   DampMin         ....    0.0000
   Turn off err/grad.   DampErr         ....    0.1000

SCF Procedure:
 Maximum # iterations   MaxIter         ....   999
 SCF integral mode      SCFMode         .... Direct
   Integral package                     .... SHARK and LIBINT hybrid scheme
 Reset frequency        DirectResetFreq ....    20
 Integral Threshold     Thresh          ....  1.000e-12 Eh
 Primitive CutOff       TCut            ....  1.000e-14 Eh

Convergence Tolerance:
 Convergence Check Mode ConvCheckMode   .... Total+1el-Energy
 Convergence forced     ConvForced      .... 1
 Energy Change          TolE            ....  1.000e-09 Eh
 1-El. energy change                    ....  1.000e-06 Eh
 Orbital Gradient       TolG            ....  2.000e-06
 Orbital Rotation angle TolX            ....  2.000e-06
 DIIS Error             TolErr          ....  1.000e-08


Diagonalization of the overlap matrix:
Smallest eigenvalue                        ... 3.972e-05
Time for diagonalization                   ...    0.015 sec
Threshold for overlap eigenvalues          ... 1.000e-08
Number of eigenvalues below threshold      ... 0
Time for construction of square roots      ...    0.011 sec
Total time needed                          ...    0.028 sec

---------------------
INITIAL GUESS: MOREAD
---------------------
Guess MOs are being read from file: frag31.ges
Input Geometry matches current geometry (good)
Input basis set matches current basis set (good)
MOs were renormalized
MOs were reorthogonalized (Cholesky)
                      ------------------
                      INITIAL GUESS DONE (   0.0 sec)
                      ------------------
--------------------
COSX GRID GENERATION
--------------------

GRIDX 1
-------
General Integration Accuracy     IntAcc      ... 4.020
Radial Grid Type                 RadialGrid  ... OptM3 with GC (2021)
Angular Grid (max. ang.)         AngularGrid ... 2 (Lebedev-110)
Angular grid pruning method      GridPruning ... 4 (adaptive)
Weight generation scheme         WeightScheme... Becke
Basis function cutoff            BFCut       ... 1.0000e-12
Integration weight cutoff        WCut        ... 1.0000e-14
Angular grids for H and He will be reduced by one unit
Partially contracted basis set               ... on
Rotationally invariant grid construction     ... off

Total number of grid points                  ...     8178
Total number of batches                      ...      130
Average number of points per batch           ...       62
Average number of grid points per atom       ...     1363
UseSFitting                                  ... on

GRIDX 2
-------
General Integration Accuracy     IntAcc      ... 4.338
Radial Grid Type                 RadialGrid  ... OptM3 with GC (2021)
Angular Grid (max. ang.)         AngularGrid ... 3 (Lebedev-194)
Angular grid pruning method      GridPruning ... 4 (adaptive)
Weight generation scheme         WeightScheme... Becke
Basis function cutoff            BFCut       ... 1.0000e-12
Integration weight cutoff        WCut        ... 1.0000e-14
Angular grids for H and He will be reduced by one unit
Partially contracted basis set               ... on
Rotationally invariant grid construction     ... off

Total number of grid points                  ...    18734
Total number of batches                      ...      296
Average number of points per batch           ...       63
Average number of grid points per atom       ...     3122
UseSFitting                                  ... on

GRIDX 3
-------
General Integration Accuracy     IntAcc      ... 4.871
Radial Grid Type                 RadialGrid  ... OptM3 with GC (2021)
Angular Grid (max. ang.)         AngularGrid ... 4 (Lebedev-302)
Angular grid pruning method      GridPruning ... 4 (adaptive)
Weight generation scheme         WeightScheme... Becke
Basis function cutoff            BFCut       ... 1.0000e-12
Integration weight cutoff        WCut        ... 1.0000e-14
Angular grids for H and He will be reduced by one unit
Partially contracted basis set               ... on
Rotationally invariant grid construction     ... off

Total number of grid points                  ...    36544
Total number of batches                      ...      573
Average number of points per batch           ...       63
Average number of grid points per atom       ...     6091
UseSFitting                                  ... on

Time for X-Grid setup             =    0.326 sec

 re-compute Schwartz prescreening matrix in partially contracted basis (1) ...done (   0.081 sec)
--------------
SCF ITERATIONS
--------------
ITER       Energy         Delta-E        Max-DP      RMS-DP      [F,P]     Damp
               ***  Starting incremental Fock matrix formation  ***
                      *** Initiating the SOSCF procedure ***
                      *** Re-Reading the Fockian *** 
                      *** Removing any level shift *** 
ITER       Energy         Delta-E        Max-DP      RMS-DP   
  0   -152.1323921322   0.000000000000 0.00312000  0.00004442
               *** Restarting incremental Fock matrix formation ***
  1   -152.1322902216   0.000101910599 0.00301240  0.00004098
  2   -152.1322902601  -0.000000038545 0.00032433  0.00000391
  3   -152.1322901377   0.000000122385 0.00002279  0.00000047
  4   -152.1322901273   0.000000010440 0.00002277  0.00000031
  5   -152.1322901378  -0.000000010470 0.00000234  0.00000003
  6   -152.1322901381  -0.000000000300 0.00000042  0.00000001
  7   -152.1322901377   0.000000000322 0.00000032  0.00000000
                 **** Energy Check signals convergence ****
              ***Rediagonalizing the Fockian in SOSCF/NRSCF***

               *****************************************************
               *                     SUCCESS                       *
               *           SCF CONVERGED AFTER   8 CYCLES          *
               *****************************************************

Old exchange energy                            =    -17.885018860 Eh
New exchange energy                            =    -17.885133382 Eh
Exchange energy change after final integration =     -0.000114522 Eh
Total energy after final integration           =   -152.132404660 Eh
Final COS-X integration done in                =     1.575 sec

----------------
TOTAL SCF ENERGY
----------------

Total Energy       :         -152.13240466 Eh           -4139.73319 eV

Components:
Nuclear Repulsion  :           37.74512698 Eh            1027.09712 eV
Electronic Energy  :         -189.87753164 Eh           -5166.83031 eV
One Electron Energy:         -284.93407040 Eh           -7753.45023 eV
Two Electron Energy:           95.05653877 Eh            2586.61992 eV
Max COSX asymmetry :            0.00000082 Eh               0.00002 eV

Virial components:
Potential Energy   :         -304.07033279 Eh           -8274.17441 eV
Kinetic Energy     :          151.93792813 Eh            4134.44122 eV
Virial Ratio       :            2.00127997


---------------
SCF CONVERGENCE
---------------

  Last Energy change         ...    1.7138e-11  Tolerance :   1.0000e-09
  Last MAX-Density change    ...    1.5543e-15  Tolerance :   1.0000e-08
  Last RMS-Density change    ...    7.0436e-18  Tolerance :   1.0000e-09

             **** THE GBW FILE WAS UPDATED (frag31.gbw) ****
             **** DENSITY frag31.scfp WAS UPDATED ****
             **** ENERGY FILE WAS UPDATED (frag31.en.tmp) ****
             **** THE GBW FILE WAS UPDATED (frag31.gbw) ****
             **** DENSITY frag31.scfp WAS UPDATED ****
             **** ENERGY FILE WAS UPDATED (frag31.en.tmp) ****
----------------
ORBITAL ENERGIES
----------------

  NO   OCC          E(Eh)            E(eV) 
   0   2.0000     -20.598880      -560.5240 
   1   2.0000     -20.521346      -558.4142 
   2   2.0000      -1.382742       -37.6263 
   3   2.0000      -1.305164       -35.5153 
   4   2.0000      -0.744330       -20.2542 
   5   2.0000      -0.694000       -18.8847 
   6   2.0000      -0.616520       -16.7764 
   7   2.0000      -0.553608       -15.0644 
   8   2.0000      -0.524659       -14.2767 
   9   2.0000      -0.469133       -12.7658 
  10   0.0000       0.018014         0.4902 
  11   0.0000       0.039398         1.0721 
  12   0.0000       0.044858         1.2206 
  13   0.0000       0.068199         1.8558 
  14   0.0000       0.102849         2.7987 
  15   0.0000       0.118914         3.2358 
  16   0.0000       0.136376         3.7110 
  17   0.0000       0.144286         3.9262 
  18   0.0000       0.149682         4.0730 
  19   0.0000       0.164034         4.4636 
  20   0.0000       0.176913         4.8140 
  21   0.0000       0.180851         4.9212 
  22   0.0000       0.199287         5.4229 
  23   0.0000       0.206988         5.6324 
  24   0.0000       0.224276         6.1029 
  25   0.0000       0.234113         6.3705 
  26   0.0000       0.248329         6.7574 
  27   0.0000       0.254372         6.9218 
  28   0.0000       0.293252         7.9798 
  29   0.0000       0.305534         8.3140 
  30   0.0000       0.312738         8.5100 
  31   0.0000       0.341216         9.2850 
  32   0.0000       0.352105         9.5813 
  33   0.0000       0.363636         9.8950 
  34   0.0000       0.373670        10.1681 
  35   0.0000       0.375338        10.2135 
  36   0.0000       0.427891        11.6435 
  37   0.0000       0.466079        12.6827 
  38   0.0000       0.477281        12.9875 
  39   0.0000       0.490871        13.3573 
  40   0.0000       0.519267        14.1300 
  41   0.0000       0.533369        14.5137 
  42   0.0000       0.553121        15.0512 
  43   0.0000       0.563311        15.3285 
  44   0.0000       0.577745        15.7212 
  45   0.0000       0.593494        16.1498 
  46   0.0000       0.597546        16.2600 
  47   0.0000       0.604855        16.4589 
  48   0.0000       0.622311        16.9339 
  49   0.0000       0.651336        17.7238 
  50   0.0000       0.662749        18.0343 
  51   0.0000       0.681063        18.5327 
  52   0.0000       0.684596        18.6288 
  53   0.0000       0.695914        18.9368 
  54   0.0000       0.717353        19.5202 
  55   0.0000       0.726126        19.7589 
  56   0.0000       0.735592        20.0165 
  57   0.0000       0.751694        20.4546 
  58   0.0000       0.759199        20.6588 
  59   0.0000       0.770535        20.9673 
  60   0.0000       0.779189        21.2028 
  61   0.0000       0.783267        21.3138 
  62   0.0000       0.800052        21.7705 
  63   0.0000       0.805243        21.9118 
  64   0.0000       0.822604        22.3842 
  65   0.0000       0.832012        22.6402 
  66   0.0000       0.855477        23.2787 
  67   0.0000       0.881146        23.9772 
  68   0.0000       0.907770        24.7017 
  69   0.0000       0.943433        25.6721 
  70   0.0000       0.971571        26.4378 
  71   0.0000       0.975224        26.5372 
  72   0.0000       0.980025        26.6678 
  73   0.0000       1.017088        27.6764 
  74   0.0000       1.082446        29.4548 
  75   0.0000       1.130098        30.7515 
  76   0.0000       1.152277        31.3551 
  77   0.0000       1.159149        31.5421 
  78   0.0000       1.183158        32.1954 
  79   0.0000       1.215590        33.0779 
  80   0.0000       1.237009        33.6607 
  81   0.0000       1.277805        34.7708 
  82   0.0000       1.283998        34.9394 
  83   0.0000       1.317320        35.8461 
  84   0.0000       1.336472        36.3672 
  85   0.0000       1.414897        38.5013 
  86   0.0000       1.427242        38.8372 
  87   0.0000       1.453663        39.5562 
  88   0.0000       1.475552        40.1518 
  89   0.0000       1.520305        41.3696 
  90   0.0000       1.546099        42.0715 
  91   0.0000       1.557327        42.3770 
  92   0.0000       1.568283        42.6752 
  93   0.0000       1.581394        43.0319 
  94   0.0000       1.601900        43.5899 
  95   0.0000       1.612247        43.8715 
  96   0.0000       1.619941        44.0808 
  97   0.0000       1.651888        44.9501 
  98   0.0000       1.664815        45.3019 
  99   0.0000       1.681829        45.7649 
 100   0.0000       1.695334        46.1324 
 101   0.0000       1.701244        46.2932 
 102   0.0000       1.716655        46.7126 
 103   0.0000       1.728549        47.0362 
 104   0.0000       1.737803        47.2880 
 105   0.0000       1.761585        47.9352 
 106   0.0000       1.771946        48.2171 
 107   0.0000       1.782899        48.5151 
 108   0.0000       1.788267        48.6612 
 109   0.0000       1.800474        48.9934 
 110   0.0000       1.818689        49.4890 
 111   0.0000       1.830243        49.8034 
 112   0.0000       1.847589        50.2754 
 113   0.0000       1.865700        50.7683 
 114   0.0000       1.872122        50.9430 
 115   0.0000       1.899943        51.7001 
 116   0.0000       1.912732        52.0481 
 117   0.0000       1.928547        52.4784 
 118   0.0000       1.936781        52.7025 
 119   0.0000       1.947714        53.0000 
 120   0.0000       1.949116        53.0381 
 121   0.0000       1.972876        53.6847 
 122   0.0000       1.980807        53.9005 
 123   0.0000       1.999803        54.4174 
 124   0.0000       2.040914        55.5361 
 125   0.0000       2.077217        56.5239 
 126   0.0000       2.080526        56.6140 
 127   0.0000       2.126551        57.8664 
 128   0.0000       2.155808        58.6625 
 129   0.0000       2.174306        59.1659 
 130   0.0000       2.203246        59.9534 
 131   0.0000       2.232961        60.7619 
 132   0.0000       2.249457        61.2108 
 133   0.0000       2.258137        61.4470 
 134   0.0000       2.300079        62.5883 
 135   0.0000       2.336587        63.5818 
 136   0.0000       2.372485        64.5586 
 137   0.0000       2.400674        65.3257 
 138   0.0000       2.405707        65.4626 
 139   0.0000       2.432614        66.1948 
 140   0.0000       2.445051        66.5332 
 141   0.0000       2.496815        67.9418 
 142   0.0000       2.582934        70.2852 
 143   0.0000       2.631944        71.6188 
 144   0.0000       2.691676        73.2442 
 145   0.0000       2.775529        75.5260 
 146   0.0000       2.822207        76.7962 
 147   0.0000       2.863773        77.9272 
 148   0.0000       2.913731        79.2867 
 149   0.0000       2.960582        80.5615 
 150   0.0000       2.998593        81.5959 
 151   0.0000       3.028708        82.4153 
 152   0.0000       3.070295        83.5470 
 153   0.0000       3.090935        84.1086 
 154   0.0000       3.102425        84.4213 
 155   0.0000       3.122655        84.9718 
 156   0.0000       3.140257        85.4507 
 157   0.0000       3.173514        86.3557 
 158   0.0000       3.221752        87.6683 
 159   0.0000       3.250104        88.4398 
 160   0.0000       3.279212        89.2319 
 161   0.0000       3.314675        90.1969 
 162   0.0000       3.340020        90.8866 
 163   0.0000       3.440952        93.6331 
 164   0.0000       3.445691        93.7620 
 165   0.0000       3.502964        95.3205 
 166   0.0000       3.553268        96.6893 
 167   0.0000       3.586981        97.6067 
 168   0.0000       3.594895        97.8221 
 169   0.0000       3.614611        98.3586 
 170   0.0000       3.672169        99.9248 
 171   0.0000       3.714866       101.0866 
 172   0.0000       3.730245       101.5051 
 173   0.0000       3.772717       102.6608 
 174   0.0000       3.783467       102.9534 
 175   0.0000       3.840101       104.4945 
 176   0.0000       3.861625       105.0801 
 177   0.0000       3.886264       105.7506 
 178   0.0000       3.939374       107.1958 
 179   0.0000       3.963661       107.8567 
 180   0.0000       4.056991       110.3963 
 181   0.0000       4.084369       111.1413 
 182   0.0000       4.165539       113.3501 
 183   0.0000       4.204135       114.4003 
 184   0.0000       4.230023       115.1048 
 185   0.0000       4.247652       115.5845 
 186   0.0000       4.304583       117.1337 
 187   0.0000       4.317585       117.4875 
 188   0.0000       4.341049       118.1259 
 189   0.0000       4.354410       118.4895 
 190   0.0000       4.387685       119.3950 
 191   0.0000       4.431495       120.5871 
 192   0.0000       4.443310       120.9086 
 193   0.0000       4.535514       123.4176 
 194   0.0000       4.551391       123.8496 
 195   0.0000       4.604853       125.3044 
 196   0.0000       4.669188       127.0551 
 197   0.0000       4.678998       127.3220 
 198   0.0000       4.732688       128.7830 
 199   0.0000       4.771845       129.8485 
 200   0.0000       4.813943       130.9941 
 201   0.0000       4.831085       131.4605 
 202   0.0000       4.855143       132.1151 
 203   0.0000       4.875142       132.6594 
 204   0.0000       4.889208       133.0421 
 205   0.0000       4.982009       135.5674 
 206   0.0000       5.068485       137.9205 
 207   0.0000       5.082088       138.2906 
 208   0.0000       5.089590       138.4948 
 209   0.0000       5.121652       139.3672 
 210   0.0000       5.155655       140.2925 
 211   0.0000       5.227859       142.2573 
 212   0.0000       5.253137       142.9451 
 213   0.0000       5.413094       147.2978 
 214   0.0000       5.452310       148.3649 
 215   0.0000       5.530139       150.4827 
 216   0.0000       5.550215       151.0290 
 217   0.0000       5.582320       151.9027 
 218   0.0000       5.707439       155.3073 
 219   0.0000       5.737871       156.1354 
 220   0.0000       5.766419       156.9122 
 221   0.0000       5.870208       159.7365 
 222   0.0000       5.909282       160.7997 
 223   0.0000       5.970046       162.4532 
 224   0.0000       6.044262       164.4727 
 225   0.0000       6.102863       166.0674 
 226   0.0000       6.179650       168.1568 
 227   0.0000       6.269964       170.6144 
 228   0.0000       6.369805       173.3312 
 229   0.0000       6.529624       177.6801 
 230   0.0000       6.864924       186.8041 
 231   0.0000       6.882515       187.2828 
 232   0.0000       6.898962       187.7303 
 233   0.0000       6.916958       188.2200 
 234   0.0000       6.938464       188.8052 
 235   0.0000       6.979308       189.9166 
 236   0.0000       7.017441       190.9543 
 237   0.0000       7.185754       195.5343 
 238   0.0000       7.660537       208.4538 
 239   0.0000       7.735592       210.4962 
 240   0.0000       7.769303       211.4135 
 241   0.0000       7.833280       213.1544 
 242   0.0000       7.846983       213.5273 
 243   0.0000       7.852039       213.6649 
 244   0.0000       7.874372       214.2726 
 245   0.0000       7.915051       215.3795 
 246   0.0000       7.923456       215.6082 
 247   0.0000       7.949352       216.3129 
 248   0.0000       8.000729       217.7109 
 249   0.0000       8.027721       218.4454 
 250   0.0000       8.045053       218.9170 
 251   0.0000       8.077757       219.8069 
 252   0.0000       8.088273       220.0931 
 253   0.0000       8.156255       221.9430 
 254   0.0000       8.254079       224.6049 
 255   0.0000       8.306239       226.0242 
 256   0.0000       8.402405       228.6411 
 257   0.0000       8.464236       230.3236 
 258   0.0000       8.624607       234.6875 
 259   0.0000       8.708342       236.9660 
 260   0.0000       8.740209       237.8332 
 261   0.0000       8.744324       237.9452 
 262   0.0000       8.763911       238.4781 
 263   0.0000       8.776880       238.8310 
 264   0.0000       8.797314       239.3871 
 265   0.0000       8.863287       241.1823 
 266   0.0000       8.946388       243.4436 
 267   0.0000       9.002485       244.9701 
 268   0.0000       9.055219       246.4050 
 269   0.0000       9.137157       248.6347 
 270   0.0000       9.157648       249.1923 
 271   0.0000       9.183048       249.8834 
 272   0.0000       9.223747       250.9909 
 273   0.0000       9.255833       251.8640 
 274   0.0000       9.361626       254.7428 
 275   0.0000       9.488497       258.1951 
 276   0.0000       9.599922       261.2272 
 277   0.0000       9.783936       266.2344 
 278   0.0000       9.858414       268.2611 
 279   0.0000       9.880418       268.8598 
 280   0.0000       9.934679       270.3364 
 281   0.0000       9.975148       271.4376 
 282   0.0000      10.042433       273.2685 
 283   0.0000      10.066622       273.9267 
 284   0.0000      10.127324       275.5785 
 285   0.0000      10.179018       276.9852 
 286   0.0000      10.360887       281.9341 
 287   0.0000      10.422535       283.6116 
 288   0.0000      10.518548       286.2242 
 289   0.0000      10.581874       287.9474 
 290   0.0000      10.913199       296.9632 
 291   0.0000      11.005783       299.4826 
 292   0.0000      11.080167       301.5067 
 293   0.0000      11.120688       302.6093 
 294   0.0000      11.207218       304.9639 
 295   0.0000      11.231888       305.6352 
 296   0.0000      11.312189       307.8203 
 297   0.0000      11.360301       309.1295 
 298   0.0000      11.400620       310.2266 
 299   0.0000      11.447554       311.5038 
 300   0.0000      11.492171       312.7179 
 301   0.0000      11.516158       313.3706 
 302   0.0000      11.657360       317.2129 
 303   0.0000      11.754476       319.8556 
 304   0.0000      11.779087       320.5252 
 305   0.0000      11.833676       322.0107 
 306   0.0000      11.846543       322.3608 
 307   0.0000      11.891438       323.5825 
 308   0.0000      12.006180       326.7048 
 309   0.0000      12.105577       329.4095 
 310   0.0000      12.156079       330.7837 
 311   0.0000      12.170799       331.1843 
 312   0.0000      12.218753       332.4892 
 313   0.0000      12.333566       335.6134 
 314   0.0000      12.339669       335.7795 
 315   0.0000      12.535318       341.1034 
 316   0.0000      12.689326       345.2941 
 317   0.0000      12.706370       345.7579 
 318   0.0000      12.733172       346.4872 
 319   0.0000      12.829963       349.1210 
 320   0.0000      12.895047       350.8921 
 321   0.0000      12.921081       351.6005 
 322   0.0000      12.961337       352.6959 
 323   0.0000      13.021485       354.3326 
 324   0.0000      13.201585       359.2334 
 325   0.0000      13.345660       363.1539 
 326   0.0000      13.846553       376.7839 
 327   0.0000      13.975627       380.2961 
 328   0.0000      14.182545       385.9267 
 329   0.0000      14.287507       388.7828 
 330   0.0000      14.461130       393.5074 
 331   0.0000      14.510182       394.8421 
 332   0.0000      14.705818       400.1656 
 333   0.0000      14.807918       402.9439 
 334   0.0000      14.854079       404.2000 
 335   0.0000      14.938483       406.4968 
 336   0.0000      15.157729       412.4628 
 337   0.0000      15.296754       416.2458 
 338   0.0000      16.853316       458.6021 
 339   0.0000      17.040412       463.6932 
 340   0.0000      17.271708       469.9871 
 341   0.0000      17.405524       473.6284 
 342   0.0000      45.688972      1243.2601 
 343   0.0000      45.975624      1251.0603 

--------------------
FRAGMENT INFORMATION
--------------------
Fragment  1:    0   1   2 
Fragment  2:    3   4   5 


                    ********************************
                    * MULLIKEN POPULATION ANALYSIS *
                    ********************************

-------------------------
MULLIKEN FRAGMENT CHARGES
-------------------------
 Fragment   0 :   0.087065
 Fragment   1 :  -0.087065
Sum of fragment charges:   -0.0000000

---------------------------------
MULLIKEN FRAGMENT OVERLAP CHARGES
---------------------------------
                  0          1    
      0      11.000476  -0.027330
      1      -0.027330  11.207647

-----------------------
MULLIKEN ATOMIC CHARGES
-----------------------
   0 O :   -0.539572
   1 H :    0.322328
   2 H :    0.304309
   3 O :   -0.616503
   4 H :    0.234150
   5 H :    0.295288
Sum of atomic charges:   -0.0000000

--------------------------------
MULLIKEN REDUCED ORBITAL CHARGES
--------------------------------
  0 O s       :     3.850268  s :     3.850268
      pz      :     1.327943  p :     4.654256
      px      :     1.469452
      py      :     1.856862
      dz2     :     0.012523  d :     0.030588
      dxz     :     0.006650
      dyz     :     0.000693
      dx2y2   :     0.010535
      dxy     :     0.000188
      f0      :     0.001657  f :     0.003823
      f+1     :    -0.000072
      f-1     :     0.000303
      f+2     :     0.001003
      f-2     :     0.000042
      f+3     :     0.000950
      f-3     :    -0.000061
      g0      :     0.000215  g :     0.000637
      g+1     :     0.000213
      g-1     :     0.000035
      g+2     :     0.000004
      g-2     :     0.000008
      g+3     :     0.000080
      g-3     :    -0.000004
      g+4     :     0.000080
      g-4     :     0.000005
  1 H s       :     0.591608  s :     0.591608
      pz      :     0.020388  p :     0.079787
      px      :     0.019848
      py      :     0.039551
      dz2     :     0.001929  d :     0.008140
      dxz     :    -0.000840
      dyz     :     0.001659
      dx2y2   :     0.000387
      dxy     :     0.005004
      f0      :    -0.000061  f :    -0.001863
      f+1     :    -0.000867
      f-1     :    -0.000017
      f+2     :    -0.000314
      f-2     :    -0.000157
      f+3     :    -0.000142
      f-3     :    -0.000305
  2 H s       :     0.604096  s :     0.604096
      pz      :     0.020570  p :     0.085813
      px      :     0.024624
      py      :     0.040618
      dz2     :    -0.000333  d :     0.007984
      dxz     :     0.002176
      dyz     :     0.005671
      dx2y2   :     0.000129
      dxy     :     0.000340
      f0      :    -0.000660  f :    -0.002201
      f+1     :    -0.001026
      f-1     :    -0.000497
      f+2     :    -0.000011
      f-2     :    -0.000009
      f+3     :    -0.000005
      f-3     :     0.000007
  3 O s       :     3.845088  s :     3.845088
      pz      :     1.778278  p :     4.730771
      px      :     1.340504
      py      :     1.611989
      dz2     :     0.004290  d :     0.036862
      dxz     :     0.004130
      dyz     :     0.006791
      dx2y2   :     0.002467
      dxy     :     0.019185
      f0      :     0.000490  f :     0.003275
      f+1     :     0.000654
      f-1     :     0.000285
      f+2     :     0.000065
      f-2     :     0.000662
      f+3     :     0.000077
      f-3     :     0.001043
      g0      :     0.000044  g :     0.000506
      g+1     :     0.000019
      g-1     :     0.000031
      g+2     :     0.000023
      g-2     :     0.000066
      g+3     :     0.000044
      g-3     :     0.000057
      g+4     :     0.000096
      g-4     :     0.000126
  4 H s       :     0.572718  s :     0.572718
      pz      :     0.056036  p :     0.146629
      px      :     0.051565
      py      :     0.039028
      dz2     :     0.014125  d :     0.038071
      dxz     :     0.007703
      dyz     :     0.004011
      dx2y2   :     0.009394
      dxy     :     0.002838
      f0      :     0.000381  f :     0.008432
      f+1     :     0.001118
      f-1     :     0.001534
      f+2     :     0.000977
      f-2     :     0.001318
      f+3     :     0.001771
      f-3     :     0.001333
  5 H s       :     0.607280  s :     0.607280
      pz      :     0.040963  p :     0.089207
      px      :     0.022233
      py      :     0.026011
      dz2     :    -0.000122  d :     0.009444
      dxz     :     0.004670
      dyz     :     0.001667
      dx2y2   :     0.002501
      dxy     :     0.000728
      f0      :    -0.000078  f :    -0.001218
      f+1     :    -0.000192
      f-1     :     0.000009
      f+2     :    -0.000219
      f-2     :     0.000073
      f+3     :    -0.000425
      f-3     :    -0.000386


                     *******************************
                     * LOEWDIN POPULATION ANALYSIS *
                     *******************************

------------------------
LOEWDIN FRAGMENT CHARGES
------------------------
 Fragment   0 :   0.309536
 Fragment   1 :  -0.309536

----------------------------
LOEWDIN FRAGMENT BOND ORDERS
----------------------------
                  0          1    
      0      17.975829   0.974227
      1       0.974227  19.310197

----------------------
LOEWDIN ATOMIC CHARGES
----------------------
   0 O :    1.675939
   1 H :   -0.658531
   2 H :   -0.707872
   3 O :    1.574652
   4 H :   -1.082473
   5 H :   -0.801715

-------------------------------
LOEWDIN REDUCED ORBITAL CHARGES
-------------------------------
  0 O s       :     2.814424  s :     2.814424
      pz      :     1.048390  p :     3.353139
      px      :     1.095904
      py      :     1.208845
      dz2     :     0.039570  d :     0.119984
      dxz     :     0.030712
      dyz     :     0.010015
      dx2y2   :     0.020086
      dxy     :     0.019601
      f0      :     0.009958  f :     0.033207
      f+1     :     0.001677
      f-1     :     0.001941
      f+2     :     0.005038
      f-2     :     0.006436
      f+3     :     0.004971
      f-3     :     0.003186
      g0      :     0.000740  g :     0.003308
      g+1     :     0.000657
      g-1     :     0.000342
      g+2     :     0.000047
      g-2     :     0.000047
      g+3     :     0.000683
      g-3     :     0.000251
      g+4     :     0.000496
      g-4     :     0.000044
  1 H s       :     0.548875  s :     0.548875
      pz      :     0.139967  p :     0.510120
      px      :     0.223607
      py      :     0.146546
      dz2     :     0.083445  d :     0.399754
      dxz     :     0.101295
      dyz     :     0.024416
      dx2y2   :     0.082305
      dxy     :     0.108293
      f0      :     0.008894  f :     0.199783
      f+1     :     0.066634
      f-1     :     0.000234
      f+2     :     0.027674
      f-2     :     0.025297
      f+3     :     0.025008
      f-3     :     0.046042
  2 H s       :     0.561065  s :     0.561065
      pz      :     0.239252  p :     0.536537
      px      :     0.138580
      py      :     0.158705
      dz2     :     0.121895  d :     0.410197
      dxz     :     0.147609
      dyz     :     0.131893
      dx2y2   :     0.002904
      dxy     :     0.005896
      f0      :     0.048435  f :     0.200073
      f+1     :     0.076832
      f-1     :     0.064225
      f+2     :     0.003536
      f-2     :     0.006733
      f+3     :     0.000172
      f-3     :     0.000140
  3 O s       :     2.876333  s :     2.876333
      pz      :     1.205764  p :     3.445944
      px      :     1.054110
      py      :     1.186069
      dz2     :     0.008548  d :     0.081176
      dxz     :     0.011677
      dyz     :     0.009236
      dx2y2   :     0.012201
      dxy     :     0.039514
      f0      :     0.002468  f :     0.019172
      f+1     :     0.003000
      f-1     :     0.001175
      f+2     :     0.000613
      f-2     :     0.004691
      f+3     :     0.001592
      f-3     :     0.005633
      g0      :     0.000308  g :     0.002723
      g+1     :     0.000214
      g-1     :     0.000134
      g+2     :     0.000100
      g-2     :     0.000342
      g+3     :     0.000286
      g-3     :     0.000344
      g+4     :     0.000457
      g-4     :     0.000539
  4 H s       :     0.530468  s :     0.530468
      pz      :     0.211610  p :     0.697628
      px      :     0.235995
      py      :     0.250024
      dz2     :     0.095585  d :     0.573649
      dxz     :     0.103282
      dyz     :     0.096074
      dx2y2   :     0.149061
      dxy     :     0.129647
      f0      :     0.019080  f :     0.280728
      f+1     :     0.039882
      f-1     :     0.034323
      f+2     :     0.040997
      f-2     :     0.048805
      f+3     :     0.060787
      f-3     :     0.036855
  5 H s       :     0.587875  s :     0.587875
      pz      :     0.166168  p :     0.581439
      px      :     0.223988
      py      :     0.191283
      dz2     :     0.034052  d :     0.427338
      dxz     :     0.114216
      dyz     :     0.030818
      dx2y2   :     0.125945
      dxy     :     0.122307
      f0      :     0.029052  f :     0.205064
      f+1     :     0.016292
      f-1     :     0.008571
      f+2     :     0.016630
      f-2     :     0.029760
      f+3     :     0.073245
      f-3     :     0.031515


                      *****************************
                      * MAYER POPULATION ANALYSIS *
                      *****************************

  NA   - Mulliken gross atomic population
  ZA   - Total nuclear charge
  QA   - Mulliken gross atomic charge
  VA   - Mayer's total valence
  BVA  - Mayer's bonded valence
  FA   - Mayer's free valence

  ATOM       NA         ZA         QA         VA         BVA        FA
  0 O      8.5396     8.0000    -0.5396     1.9583     1.9583    -0.0000
  1 H      0.6777     1.0000     0.3223     0.9476     0.9476    -0.0000
  2 H      0.6957     1.0000     0.3043     0.9663     0.9663    -0.0000
  3 O      8.6165     8.0000    -0.6165     1.9339     1.9339    -0.0000
  4 H      0.7658     1.0000     0.2342     1.1409     1.1409    -0.0000
  5 H      0.7047     1.0000     0.2953     0.9875     0.9875    -0.0000

  Mayer bond orders larger than 0.100000
B(  0-O ,  1-H ) :   0.9296 B(  0-O ,  2-H ) :   0.9461 B(  3-O ,  4-H ) :   1.0040 
B(  3-O ,  5-H ) :   0.9530 

-------
TIMINGS
-------

Total SCF time: 0 days 0 hours 0 min 10 sec 

Total time                  ....      10.176 sec
Sum of individual times     ....      16.692 sec  (164.0%)

Fock matrix formation       ....      16.109 sec  (158.3%)
  Split-RI-J                ....       2.261 sec  ( 14.0% of F)
  Chain of spheres X        ....       6.820 sec  ( 42.3% of F)
Diagonalization             ....       0.028 sec  (  0.3%)
Density matrix formation    ....       0.010 sec  (  0.1%)
Population analysis         ....       0.024 sec  (  0.2%)
Initial guess               ....       0.029 sec  (  0.3%)
Orbital Transformation      ....       0.000 sec  (  0.0%)
Orbital Orthonormalization  ....       0.019 sec  (  0.2%)
DIIS solution               ....       0.013 sec  (  0.1%)
SOSCF solution              ....       0.154 sec  (  1.5%)

Maximum memory used throughout the entire SCF-calculation: 95.5 MB


           ************************************************************
           *        Program running with 16 parallel MPI-processes    *
           *              working on a common directory               *
           ************************************************************


--------------------------------------------------------------------------------
                             ORCA-MATRIX DRIVEN CI
--------------------------------------------------------------------------------


Wavefunction type
-----------------
Correlation treatment                      ...      CCSD     
Single excitations                         ... ON
Orbital optimization                       ... OFF
Calculation of Z vector                    ... OFF
Calculation of Brueckner orbitals          ... OFF
Perturbative triple excitations            ... ON
Calculation of F12 correction              ... OFF
Frozen core treatment                      ... chemical core (4 el)
Reference Wavefunction                     ... RHF
  Internal Orbitals:     2 ...    9 (  8 MO's/ 16 electrons)
  Virtual  Orbitals:    10 ...  343 (334 MO's              )
Number of AO's                             ...    344
Number of electrons                        ...     20
Number of correlated electrons             ...     16

Algorithmic settings
--------------------
Integral transformation                    ... All integrals via the RI transformation
K(C) Formation                             ... RI-DLPNO
   PNO-Integral Storage                    ... ON DISK
   PNO occupation number cut-off           ... 1.000e-07
   Singles PNO occupation number cut-off   ... 3.000e-09
   PNO Mulliken prescreening cut-off       ... 1.000e-03
   Domain cut-off (Mulliken population)    ... 1.000e-03
   PNO Normalization                       ...    1
Maximum number of iterations               ...        50
Convergence tolerance (max. residuum)      ... 1.000e-06
Level shift for amplitude update           ... 2.000e-01
Maximum number of DIIS vectors             ...         7
DIIS turned on at iteration                ...         0
Damping before turning on DIIS             ...     0.500
Damping after turning on DIIS              ...     0.000
Pair specific amplitude update             ... OFF
Natural orbital iterations                 ... OFF
Perturbative natural orbital generation    ... OFF
Printlevel                                 ... 3

Singles Fock matrix elements calculated using PNOs.

Memory handling:
----------------
Maximum memory for working arrays          ...   6000 MB
Data storage in matrix containers          ... UNCOMPRESSED
Data type for integral storage             ... DOUBLE
In-Core Storage of quantities:
   Amplitudes+Sigma Vector      ... NO
   J+K operators                ... NO
   DIIS vectors                 ... NO
   3-external integrals         ... NO
   4-external integrals         ... NO

Localization treatment:
-----------------------
Localization option                        ...    6
Localization threshhold                    ... -1.0e+00
Using relative localization threshhold     ... 1.0e-08
Neglect threshold for strong pairs         ... 1.000e-05 Eh
Prescreening threshold for very weak pairs ... 1.000e-07 Eh

Initializing the integral package          ... done
Localizing the valence orbitals
Localizing the valence orbitals
------------------------------------------------------------------------------
                           ORCA ORBITAL LOCALIZATION
------------------------------------------------------------------------------

Input orbitals are from                  ... frag31.gbw
Output orbitals are to                   ... frag31.loc
Max. number of iterations                ... 128
Localizations seeded randomly            ... off
Convergence tolerance                    ... 2.000e-07
Using relative localization threshhold   ... 1.000e-08
Threshold for strong local MOs           ... 9.500e-01
Threshold for bond MOs                   ... 8.500e-01
Operator                                 ... 0
Orbital range for localization           ... 2 to 9
Localization criterion                   ... FOSTER-BOYS (AUGMENTED HESSIAN)
Doing the dipole integrals     ... o.k.
Initial value of the localization sum :   108.468304
ITERATION   0 : L=  112.1812112189 DL=  3.71e+00 (AVERGE_DL)=    0.3641480852 
ITERATION   1 : L=  112.5999359857 DL=  4.19e-01 (AVERGE_DL)=    0.1222884130 
ITERATION   2 : L=  112.6842178659 DL=  8.43e-02 (AVERGE_DL)=    0.0548640789 
ITERATION   3 : L=  112.6924651353 DL=  8.25e-03 (AVERGE_DL)=    0.0171623232 
ITERATION   4 : L=  112.6935981752 DL=  1.13e-03 (AVERGE_DL)=    0.0063612665 
ITERATION   5 : L=  112.6937489027 DL=  1.51e-04 (AVERGE_DL)=    0.0023201562 
ITERATION   6 : L=  112.6937676214 DL=  1.87e-05 (AVERGE_DL)=    0.0008176339 
ITERATION   7 : L=  112.6937698599 DL=  2.24e-06 (AVERGE_DL)=    0.0002827473 
ITERATION   8 : L=  112.6937701208 DL=  2.61e-07 (AVERGE_DL)=    0.0000965183 
LOCALIZATION SUM CONVERGED

------------------------------------------------------
AUGMENTED HESSIAN OPTIMIZATION OF FOSTER-BOYS ORBITALS
------------------------------------------------------

Spin operator:           0
Orbital window:          2 to 9
Number of iterations:    128
Gradient tolerance:      2.000e-07
Number of pairs:         28
Davidson threshold:      2000
Diagonalization method:  LAPACK
Iter:    0   L: 112.6937701208   Grad. norm: 4.863199e-04
   *** Likely close to a maximum now. ***
       Augmented Hessian eigenvalues:  6.90e-08 -1.17e+00 -1.37e+00 -2.98e+00 ... 
Iter:    1   L: 112.6937701553   Grad. norm: 2.837022e-08
LOCALIZATION HAS CONVERGED.

Eigenvalues of the Hessian:
  0 -1.170e+00
  1 -1.368e+00
  2 -2.980e+00
  3 -3.238e+00
  4 -4.384e+00
  5 -4.732e+00
  6 -5.193e+00
  7 -5.398e+00
  8 -7.006e+00
  9 -7.309e+00
    ...


--------------------------------------------------------------------------------
                    LOCALIZED MOLECULAR ORBITAL COMPOSITIONS
--------------------------------------------------------------------------------

The Mulliken populations for each LMO on each atom are computed
The LMO`s will be ordered according to atom index and type
  (A) Strongly localized MO`s have populations of >=0.950 on one atom
  (B) Two center bond orbitals have populations of >=0.850 on two atoms
  (C) Other MO`s are considered to be `delocalized`

FOUND  -   4 strongly local MO`s
       -   4 two center bond MO`s
       -   0 significantly delocalized MO`s

Rather strongly localized orbitals:
MO   5:   3O  -   1.006166
MO   4:   3O  -   1.003110
MO   3:   0O  -   0.952787
MO   2:   0O  -   1.029359
Bond-like localized orbitals:
MO   9:   5H  -   0.351967  and   3O  -   0.641968
MO   8:   4H  -   0.353836  and   3O  -   0.657686
MO   7:   2H  -   0.355683  and   0O  -   0.646373
MO   6:   1H  -   0.347175  and   0O  -   0.655630
Localized MO's were stored in: frag31.loc

Localizing the core orbitals
------------------------------------------------------------------------------
                           ORCA ORBITAL LOCALIZATION
------------------------------------------------------------------------------

Input orbitals are from                  ... frag31.loc
Output orbitals are to                   ... frag31.loc
Max. number of iterations                ... 128
Localizations seeded randomly            ... off
Convergence tolerance                    ... 2.000e-07
Using relative localization threshhold   ... 1.000e-08
Threshold for strong local MOs           ... 9.500e-01
Threshold for bond MOs                   ... 8.500e-01
Operator                                 ... 0
Orbital range for localization           ... 0 to 1
Localization criterion                   ... FOSTER-BOYS (AUGMENTED HESSIAN)
Doing the dipole integrals     ... o.k.
Initial value of the localization sum :    26.395696
ITERATION   0 : L=   26.3956963206 DL=  1.04e-08 (AVERGE_DL)=    0.0001018409 
LOCALIZATION SUM CONVERGED

------------------------------------------------------
AUGMENTED HESSIAN OPTIMIZATION OF FOSTER-BOYS ORBITALS
------------------------------------------------------

Spin operator:           0
Orbital window:          0 to 1
Number of iterations:    128
Gradient tolerance:      2.000e-07
Number of pairs:         1
Davidson threshold:      2000
Diagonalization method:  LAPACK
Iter:    0   L: 26.3956963206   Grad. norm: 1.590548e-17
   *** Likely close to a maximum now. ***
       Augmented Hessian eigenvalues:  2.41e-36 -1.05e+02
Iter:    1   L: 26.3956963206   Grad. norm: 1.058791e-22
LOCALIZATION HAS CONVERGED.

Eigenvalues of the Hessian:
  0 -1.050e+02


--------------------------------------------------------------------------------
                    LOCALIZED MOLECULAR ORBITAL COMPOSITIONS
--------------------------------------------------------------------------------

The Mulliken populations for each LMO on each atom are computed
The LMO`s will be ordered according to atom index and type
  (A) Strongly localized MO`s have populations of >=0.950 on one atom
  (B) Two center bond orbitals have populations of >=0.850 on two atoms
  (C) Other MO`s are considered to be `delocalized`

FOUND  -   2 strongly local MO`s
       -   0 two center bond MO`s
       -   0 significantly delocalized MO`s

Rather strongly localized orbitals:
MO   1:   3O  -   0.998450
MO   0:   0O  -   0.999256
Localized MO's were stored in: frag31.loc

Warning: reference  - re-canonicalizations have been set to INT 1 VIRT 1
Warning: internal orbitals are localized - no re-canonicalization of internal orbitals
Warning: UsePNO is turned on - no re-canonicalization of internal and virtual orbitals

--------------------------
CLOSED-SHELL FOCK OPERATOR
--------------------------

Restoring SHARK [2] ... ok
Entering RIJCOSX section for the Fock matrix
Trying to retrieve the full J-matrix              ... done
Updating the Fock matrix                          ... done
Making the frozen core Coulomb matrix             ... SHARKdone
Retrieving the full K-matrix                      ... done
Calculating the frozen core K-matrix              ... done
Updating the Fock matrix                          ... done
Time needed for Fock operator              ...            1.859 sec
Reference energy                           ...   -152.132404695

--------------
DLPNO SETTINGS (2015 fully linear scaling implementation)
--------------

TCutMKN:           1.000e-03
TCutPAO:           1.000e-03
TCutPNO:           1.000e-07
TCutPNOSingles:    3.000e-09
TCutEN:            9.700e-01
TCutPAOExt:        1.000e-01
TCutPairs:         1.000e-05
TCutPre:           1.000e-07
TCutOSV:           1.000e-06
TCutDOij:          1.000e-05
TCutDO:            5.000e-03
TCutC:             1.000e-04
TCutCPAO:          1.000e-03
TCutCMO:           1.000e-03
TScaleDOMP2PreScr: 2.000e+00
TScaleMKNMP2PreScr:1.000e+01
TScalePNOMP2PreScr:1.000e+00
PAO overlap thresh 1.000e-08
Using PNOs for Singles Fock computation
Use new domains
Use fully linear algorithm
TCutTNO:           1.000e-09
TCutMP2Pairs:      1.000e-06
TCutDOStrong:      1.000e-02
TCutDOWeak:        2.000e-02
TCutMKNStrong:     1.000e-02
TCutMKNWeak:       1.000e-01
NTCutTNO:          1

--------------------------
Mulliken population of the LMOs            ... ok
Performing proximity check                 ... No problems found
Calculating differential overlap integrals ... ok

--------------------------
ELECTRON PAIR PRESCREENING
--------------------------

Dipole-based pair screening          .... used

   TCutDOij = 1.000000e-05
   TCutPre  = 1.000000e-07
   .... Finished loop over pairs
Total time spent in the prescreening                  ...     0.000 sec
Time for pair-prescreening                            ...     0.000 sec
Time for pairlist organization                        ...     0.000 sec
Number of pairs skipped by pre-screening              ... 0
sum of pair energies estimated for screened out pairs ...       0.000000000000 Eh
Thresholds for map construction and integral transformation for crude MP2:
   TCutMKN                    ...     1.0e-02
   TCutDO                     ...     1.0e-02
   TCutPairs                  ...     1.0e-05
   TCutPNO_CrudeMP2           ...     1.0e-07
   TCutPNOSingles_CrudeMP2    ...     3.0e-09
--------------------------------
LOCAL RI TRANSFORMATION (IAVPAO)
--------------------------------

Orbital window:       2 to 9
Number of PAOs:     344
Basis functions:    344 (96 shells)
Aux. functions:    1664 (316 shells)
Use SHARK:           on

Processing maps (0.0 sec)
Average map sizes:
   Aux shells -> MOs               8.0
   Aux shells -> PAOs            344.0
   MOs        -> AO shells        96.0
   PAOs       -> AO shells        96.0

Calculating integrals (0.6 sec, 34.957 MB)
Sorting integrals (0.1 sec, 34.938 MB)
Total time for the integral transformation: 0.7 sec
--------------------------------
INITIAL GUESS AND PNO GENERATION
--------------------------------

Populations of internal orbitals onto Fragments:
   2:      1.057    0.002  assigned to fragment   1
   3:      0.974    0.026  assigned to fragment   1
   4:      0.001    1.007  assigned to fragment   2
   5:      0.001    1.013  assigned to fragment   2
   6:      1.007    0.002  assigned to fragment   1
   7:      1.006    0.002  assigned to fragment   1
   8:      0.017    1.017  assigned to fragment   2
   9:      0.001    1.000  assigned to fragment   2

Summary assignment:
   4 orbitals assigned to fragment   1
   4 orbitals assigned to fragment   2

PNO truncation parameters                   .... 
    PAOOverlapThresh   =        1.000e-08

    TCutPairs          =        1.000e-05
    TCutPNO            =        1.000e-07
    TCutPNOSingles     =        3.000e-09
    TCutMP2Pairs       =        1.000e-06
    TCutMKN            =        1.000e-02
    TCutDO             =        1.000e-02

Pair selection                          .... not used
Type of local MP2 treatment                 .... semi-local MP2
Strategy for PNO selection                  .... occupation number selection
Pair density normalization                  .... MP2 norm
Spin component scaling                      .... not used

   .... Finished loop over pairs
Making pair pair interaction lists          ... 
Pair pair interaction statistics
Nr. of pairs:                        36
Nr. of Singles:                       8
Average (per pair domain)               (Total):
Atoms:                              6.0 (6)
PNOs:                               5.3
PAOs:                  344.0 (344)
Aux functions:                    995.2 (1664)
AuxAtoms:                           3.4 (6)
EXT1 basis functions:             344.0 (344)
Interacting Pairs:                  3.0 (36)
Interacting Pairs - Singles:        8.0 (8)
Average (per Single domain):
Atoms (Singles):                    6.0 (6)
PNOs (Singles):                   131.8
Basis functions (Singles):        344.0 (344)
Interacting Singles - Singles:      8.0 (8)
Interacting Singles - Pairs:       36.0 (36)
done

                       ===========================
                         36 OF   36 PAIRS ARE KEPT CCSD PAIRS
                          0 OF   36 PAIRS ARE KEPT MP2 PAIRS FOR (T)
                          0 OF   36 PAIRS ARE SKIPPED
                       ===========================

Total time spent in the initial guess                 ...     0.618 sec
Pair domain construction                              ...     0.000 sec
Time for calculating MP2 Guess in PAOs                ...     0.294 sec
     Time for Local metric generation                 ...     0.000 sec
     Time for Local Kij generation                    ...     0.195 sec
     Time for Local MP2 calculation                   ...     0.002 sec
     Time for LMP2 iterations                         ...     0.000 sec
          prep and other time                         ...     0.000 sec
          Time for sigma                              ...     0.000 sec (    0.000 sec in k-loop)
          Time for DIIS                               ...     0.000 sec
          Time for Update                             ...     0.000 sec
      Time for LMP2 I/O                               ...     0.000 sec
      Time for Initial PNO                            ...     0.000 sec
Time for generating PNOs                              ...     0.023 sec
Time for pairlist organization                        ...     0.000 sec
Time for pair-pair interaction organization           ...     0.002 sec
Size of the domain VM**-1/2 file                      ...         0 MB
SL-MP2 correlation energy (all non-screened pairs)    ...      -0.560740178970 Eh

Initial PNO correlation energy                        ...      -0.560283230859 Eh
sum of pair energies prescreened and skipped MP2 pairs...       0.000000000000 Eh
sum of pair energies of crude MP2 skipped pairs only  ...       0.000000000000 Eh
sum of MP2 pair energies for pairs that were not kept ...       0.000000000000 Eh
sum of PNO error estimates for the kept pairs         ...      -0.000456948111 Eh
                                                          --------------------
sum of all corrections                                         -0.000456948111
Initial total correlation energy                               -0.560740178970
Thresholds for map construction and integral transformation for fine MP2 and CCSD(T) calculation:
   TCutMKN   ...     1.0e-03
   TCutDO    ...     5.0e-03
   TCutPairs ...     1.0e-05
   TCutCMO   ...     1.0e-03
   TCutCPAO  ...     1.0e-03

Thresholds for map construction and integral transformation for strong Triples:
   TCutMKN   ...     1.0e-02
   TCutDO    ...     1.0e-02
   TCutCMO   ...     1.0e-03
   TCutCPAO  ...     1.0e-03

Thresholds for map construction and integral transformation for weak Triples:
   TCutMKN   ...     1.0e-01
   TCutDO    ...     2.0e-02
   TCutCMO   ...     1.0e-03
   TCutCPAO  ...     1.0e-03

--------------------------------
LOCAL RI TRANSFORMATION (IAVPAO)
--------------------------------

Orbital window:       2 to 9
Number of PAOs:     344
Basis functions:    344 (96 shells)
Aux. functions:    1664 (316 shells)
Use SHARK:           on

Processing maps (0.0 sec)
Average map sizes:
   Aux shells -> MOs               8.0
   Aux shells -> PAOs            344.0
   MOs        -> AO shells        96.0
   PAOs       -> AO shells        96.0

Calculating integrals (0.6 sec, 34.957 MB)
Sorting integrals (0.1 sec, 34.938 MB)
Total time for the integral transformation: 0.7 sec
--------------------------------
INITIAL GUESS AND PNO GENERATION
--------------------------------

Populations of internal orbitals onto Fragments:
   2:      1.057    0.002  assigned to fragment   1
   3:      0.974    0.026  assigned to fragment   1
   4:      0.001    1.007  assigned to fragment   2
   5:      0.001    1.013  assigned to fragment   2
   6:      1.007    0.002  assigned to fragment   1
   7:      1.006    0.002  assigned to fragment   1
   8:      0.017    1.017  assigned to fragment   2
   9:      0.001    1.000  assigned to fragment   2

Summary assignment:
   4 orbitals assigned to fragment   1
   4 orbitals assigned to fragment   2

PNO truncation parameters                   .... 
    ScaleTCutPNO       =        1.000e-02
    PAOOverlapThresh   =        1.000e-08

    TCutPairs          =        1.000e-05
    TCutPNO            =        1.000e-07
    TCutPNOSingles     =        3.000e-09
    TCutMP2Pairs       =        1.000e-06
    TCutMKN            =        1.000e-03
    TCutDO             =        5.000e-03

Pair selection                          .... not used
Type of local MP2 treatment                 .... full local PMP2
Strategy for PNO selection                  .... occupation number selection
Pair density normalization                  .... MP2 norm
Spin component scaling                      .... not used

PASS-1: Formation of initial guess LMP2 amplitudes
Initial amplitudes guess done. Entering LMP2 iteration loop:
   Max. no of iterations          ...  50
   Energy convergence tolerance   ...    1.0e-07
   Residual convergence tolerance ...    5.0e-07
   Fock matrix cutoff             ...    1.0e-05 Eh
   DIIS convergence acceleration parameters:
        Max # vectors in DIIS     ... 7
        Start iteration of DIIS   ... 0
        Levelshift                ... 2.000e-01
        Damping factor 1          ... 5.000e-01
        Damping factor 2          ... 1.000e+00
   L-MP2 PNO cut-off              ...   1.0e-09
   L-MP2 PNO cut-off (core)       ...   1.0e-11
504 of 504 terms in k-loop evaluated.

                           *** Turning on DIIS ***
LMP2-Iter=   0:  ELMP2= -0.571163571137  DE=   1.0e-02 RMAX=   5.1e-03
LMP2-Iter=   1:  ELMP2= -0.576589953407  DE=   5.4e-03 RMAX=   2.5e-03
LMP2-Iter=   2:  ELMP2= -0.577365060864  DE=   7.8e-04 RMAX=   5.4e-04
LMP2-Iter=   3:  ELMP2= -0.577469416496  DE=   1.0e-04 RMAX=   1.5e-04
LMP2-Iter=   4:  ELMP2= -0.577477547766  DE=   8.1e-06 RMAX=   2.1e-05
LMP2-Iter=   5:  ELMP2= -0.577477425636  DE=   1.2e-07 RMAX=   6.1e-06
LMP2-Iter=   6:  ELMP2= -0.577477377278  DE=   4.8e-08 RMAX=   6.3e-07
LMP2-Iter=   7:  ELMP2= -0.577477369105  DE=   8.2e-09 RMAX=   1.7e-07
LMP2-Iter=   8:  ELMP2= -0.577477372165  DE=   3.1e-09 RMAX=   2.9e-08 => CONVERGED
PASS-2: Formation of Pair natural orbitals
   .... Finished loop over pairs
Process  1:   (    4,     2):  98.841221420080 %
Process  1:   (    4,     3):  99.495812364424 %
Process  1:   (    4,     4):  99.985103359434 %
Process  1:   (    4):  99.999656060987 % (IJ)
Process  2:   (    5,     2):  98.943550298989 %
Process  2:   (    5,     3):  99.517453891270 %
Process  2:   (    5,     4):  99.988831172071 %
Process  3:   (    5,     5):  99.985259221836 %
Process  3:   (    6,     2):  99.986881543800 %
Process  3:   (    6,     3):  99.986249344983 %
Process  3:   (    5):  99.999664193736 % (IJ)
Process  4:   (    6,     4):  98.789045966990 %
Process  4:   (    6,     5):  98.309087674870 %
[...]
    7     3  :     -0.027100774 (  9.44)      -0.025578948     -0.001463991     -0.000057835       1      95
    7     6  :     -0.023618806 (  8.22)      -0.023471753     -0.000146450     -0.000000603       1      95

Overall summary of excitation mechanisms for this fragment:
  Total direct double excitations (i->a(ij))(j->b(ij))                      -0.276415751 (96.242 per cent)
  Total single charge-transfer    (i->a(ij))(j->b(X)) & (i->a(X))(j->b(ij)) -0.009511432 ( 3.312 per cent)
  Total double charge transfer    (i->a(X))(j->b(X))                        -0.001280853 ( 0.446 per cent)
                                                       -----------------------------
  Sum                                                  -0.287208036
  Consistency check                                    -0.287208036
 done 
 
FRAGMENT    2 =  -0.287330040208 Eh ...   

----------------------------------------------------------------------------------------------------------------------------------------
    i   j  type :        EP         (%)         Direct-            Single             Double         PNO in Mulliken                   
                                           Double Excitation     Charge-Transfer    Charge-Transfer  population range                   
                                                                                                      <0.7   >0.7                       
----------------------------------------------------------------------------------------------------------------------------------------
    9     9  :     -0.033129079 ( 11.53)      -0.033129079      0.000000000      0.000000000       0      85
    8     8  :     -0.032130988 ( 11.18)      -0.032130988      0.000000000      0.000000000       0      83
    5     4  :     -0.031571952 ( 10.99)      -0.031571952      0.000000000      0.000000000       2      90
    5     5  :     -0.028043424 (  9.76)      -0.028043424      0.000000000      0.000000000       1      79
    4     4  :     -0.028040296 (  9.76)      -0.028040296      0.000000000      0.000000000       2      78
    9     4  :     -0.027722956 (  9.65)      -0.027722956      0.000000000      0.000000000       2      93
    9     5  :     -0.027710743 (  9.64)      -0.027710743      0.000000000      0.000000000       1      94
    8     4  :     -0.027709861 (  9.64)      -0.027709861      0.000000000      0.000000000       2      93
    8     5  :     -0.027687378 (  9.64)      -0.027687378      0.000000000      0.000000000       1      94
    9     8  :     -0.023583363 (  8.21)      -0.023583363      0.000000000      0.000000000       1      95

Overall summary of excitation mechanisms for this fragment:
  Total direct double excitations (i->a(ij))(j->b(ij))                      -0.287330040 (100.000 per cent)
  Total single charge-transfer    (i->a(ij))(j->b(X)) & (i->a(X))(j->b(ij))  0.000000000 (-0.000 per cent)
  Total double charge transfer    (i->a(X))(j->b(X))                         0.000000000 (-0.000 per cent)
                                                       -----------------------------
  Sum                                                  -0.287330040
  Consistency check                                    -0.287330040
 done 
 
 

Decomposition of the inter-fragments strong pairs energies .. 

FRAGMENTS    2,1 =  -0.006156405170 Eh ...   

------------------------------------------------------------------------------------------------------------------------------------------------
    i   j  type :         EP        (%)         Dipole-            Cross              Charge        Charge          PNO in Mulliken            
                                                 Dipole           Excitation          Transfer      Transfer        population range            
                                                                                                                      <0.7  >0.7                
------------------------------------------------------------------------------------------------------------------------------------------------
    8     3  :     -0.002350152 ( 38.17)      -0.000906261     -0.000056919     -0.001227684     -0.000159288       3      54
    4     3  :     -0.000548464 (  8.91)      -0.000091453     -0.000004141     -0.000447219     -0.000005651       2      36
    8     2  :     -0.000546811 (  8.88)      -0.000343344      0.000003252     -0.000081683     -0.000125037       3      33
    5     3  :     -0.000541419 (  8.79)      -0.000110316     -0.000003121     -0.000421904     -0.000006077       1      38
    8     6  :     -0.000440975 (  7.16)      -0.000270609      0.000002726     -0.000073612     -0.000099480       2      32
    9     3  :     -0.000438781 (  7.13)      -0.000077268     -0.000001506     -0.000355882     -0.000004126       0      35
    8     7  :     -0.000438255 (  7.12)      -0.000259545      0.000001368     -0.000084025     -0.000096053       1      34
    5     2  :     -0.000127021 (  2.06)      -0.000098845      0.000000711     -0.000009026     -0.000019861       6      16
    4     2  :     -0.000108596 (  1.76)      -0.000091259      0.000000493     -0.000009070     -0.000008759       2      19
    4     6  :     -0.000107275 (  1.74)      -0.000079425      0.000000068     -0.000017945     -0.000009973       1      20
    5     7  :     -0.000105211 (  1.71)      -0.000073556      0.000000023     -0.000021341     -0.000010336       1      19
    4     7  :     -0.000094104 (  1.53)      -0.000062829      0.000000242     -0.000024195     -0.000007322       2      17
    5     6  :     -0.000088077 (  1.43)      -0.000054734     -0.000000586     -0.000020585     -0.000012171       4      14
    9     2  :     -0.000087839 (  1.43)      -0.000066698      0.000000121     -0.000016853     -0.000004409       2      14
    9     7  :     -0.000067172 (  1.09)      -0.000042629     -0.000000081     -0.000021802     -0.000002660       1      14
    9     6  :     -0.000066255 (  1.08)      -0.000042570      0.000000169     -0.000019418     -0.000004436       2      12
----------------------------------------------------------------------------------------------------------------------------------------------------------
                   -0.006156405               -0.002671342     -0.000057181     -0.002852243     -0.000575639 
                                                 ( 43.39%)        (  0.93%)        ( 46.33%)        (  9.35%)
----------------------------------------------------------------------------------------------------------------------------------------------------------

Overall summary of excitation mechanisms for this fragment pair:
  Total local dipole excitations    (i->a(i))(j->b(j)) -0.002671342 (43.391 per cent)
  Total Cross excitations           (i->a(j))(j->b(i)) -0.000057181 ( 0.929 per cent)
  Total Charge transfer excitations (i->a(i))(j->b(i)) -0.002852243 (46.330 per cent)
  Total Charge transfer excitations (i->a(j))(j->b(j)) -0.000575639 ( 9.350 per cent)
                                                       -----------------------------
  Sum                                                  -0.006156405
  Consistency check                                    -0.006156405
 done 
 
 
Summary Strong Pairs Energy Decomposition    
 
Intra fragment contributions: 
INTRA Fragment 1                       -0.276415751 
INTRA Fragment 2                       -0.287330040 

Charge transfer contributions: 
Charge Transfer 1 to 2                 -0.013644528 
Charge Transfer 2 to 1                 -0.000575639 

Dispersion contributions: 
Dispersion  2,1                        -0.002728524 

Singles contributions:                   
Singles energy                         -0.000000350 
 

------------------------------------------------- 
FINAL SUMMARY DLPNO-CCSD ENERGY DECOMPOSITION (Eh)
------------------------------------------------- 
 
Intrafragment REF. energy:                   
Intra fragment   1 (REF.)              -76.030555825     
Intra fragment   2 (REF.)              -76.029875441     

Interaction of fragments  2 and  1:  
Electrostatics (REF.)                  -0.061485162 
Exchange (REF.)                        -0.010488256 
Dispersion (strong pairs)              -0.002728524 
Dispersion (weak pairs)                -0.000133786 

Sum of non dispersive correlation terms: 
Non dispersion (strong pairs)          -0.577966307  
Non dispersion (weak pairs)            -0.000316012  

#Time for LED analysis ..       7.4 (sec)



--------------------------------------------------------------------------------
                                    TIMINGS
--------------------------------------------------------------------------------


Total execution time                   ...      210.297 sec

Localization of occupied MO's          ...        0.304 sec (  0.1%)
Fock Matrix Formation                  ...        1.859 sec (  0.9%)
Global overlap, Fock, MKN matrices     ...        0.353 sec (  0.2%)
Differential overlap integrals         ...        0.668 sec (  0.3%)
Organizing maps                        ...        0.018 sec (  0.0%)
RI 3-index integral generations        ...        3.096 sec (  1.5%)
RI-PNO integral transformation         ...       33.511 sec ( 15.9%)
Initial Guess                          ...        2.810 sec (  1.3%)
DIIS Solver                            ...        0.503 sec (  0.2%)
State Vector Update                    ...        0.010 sec (  0.0%)
Sigma-vector construction              ...      117.934 sec ( 56.1%)
  <D|H|D>(0-ext)                       ...        0.185 sec (  0.2% of sigma)
  <D|H|D>(2-ext Fock)                  ...        0.004 sec (  0.0% of sigma)
  <D|H|D>(2-ext)                       ...        1.328 sec (  1.1% of sigma)
  <D|H|D>(4-ext)                       ...       22.812 sec ( 19.3% of sigma)
  <D|H|D>(4-ext-corr)                  ...       62.205 sec ( 52.7% of sigma)
  CCSD doubles correction              ...        0.028 sec (  0.0% of sigma)
  <S|H|S>                              ...        0.415 sec (  0.4% of sigma)
  <S|H|D>(1-ext)                       ...        0.035 sec (  0.0% of sigma)
  <D|H|S>(1-ext)                       ...        0.001 sec (  0.0% of sigma)
  <S|H|D>(3-ext)                       ...        0.286 sec (  0.2% of sigma)
  Fock-dressing                        ...        4.525 sec (  3.8% of sigma)
  Singles amplitudes                   ...        0.128 sec (  0.1% of sigma)
  (ik|jl)-dressing                     ...        0.180 sec (  0.2% of sigma)
  (ij|ab),(ia|jb)-dressing             ...        0.453 sec (  0.4% of sigma)
  Pair energies                        ...        0.005 sec (  0.0% of sigma)
Total Time for computing (T)           ...       41.915 sec ( 19.9% of ALL)
Local Energy Decomposition             ...        7.398 sec (  3.5% of ALL)


Maximum memory used throughout the entire MDCI-calculation: 2699.5 MB

-------------------------   --------------------
FINAL SINGLE POINT ENERGY      -152.733095911830
-------------------------   --------------------


                            ***************************************
                            *     ORCA property calculations      *
                            ***************************************


  WARNING: The energy has been calculated at the MDCI level but the densities
           used in the property calculations are still SCF densities
           MDCI response densities have not been calculated 
           use %mdci Density linearized end
           or  %mdci Density unrelaxed end
           or  %mdci Density orbopt end

                                    ---------------------
                                    Active property flags
                                    ---------------------
   (+) Dipole Moment


------------------------------------------------------------------------------
                       ORCA ELECTRIC PROPERTIES CALCULATION
------------------------------------------------------------------------------

Dipole Moment Calculation                       ... on
Quadrupole Moment Calculation                   ... off
Polarizability Calculation                      ... off
GBWName                                         ... frag31.gbw
Electron density                                ... frag31.scfp
The origin for moment calculation is the CENTER OF MASS  = (-1.599822, -0.830616  1.876203)

-------------
DIPOLE MOMENT
-------------
                                X             Y             Z
Electronic contribution:      0.08352      -0.00363      -0.02872
Nuclear contribution   :      0.70264      -0.80766       0.82927
                        -----------------------------------------
Total Dipole Moment    :      0.78616      -0.81129       0.80055
                        -----------------------------------------
Magnitude (a.u.)       :      1.38460
Magnitude (Debye)      :      3.51937



--------------------
Rotational spectrum 
--------------------
 
Rotational constants in cm-1:     7.477510     0.244931     0.242283 
Rotational constants in MHz : 224170.110119  7342.834821  7263.454419 

 Dipole components along the rotational axes: 
x,y,z [a.u.] :     1.364421    -0.226753    -0.063620 
x,y,z [Debye]:     3.468082    -0.576361    -0.161708 

 

--------------------------------
SUGGESTED CITATIONS FOR THIS RUN
--------------------------------

Below you find a list of papers that are relevant to this ORCA run
We neither can nor want to force you to cite these paper, but we appreciate if you do
You receive ORCA, which is the product of a lot of hard work by many enthusiastic individuals, for free
The *only* thing we kindly ask in return is that you cite our papers,
We deeply appreciate it, if you show your appreciation for ORCA but *not* just citing the generic ORCA reference.

Please note that relegating all ORCA citations to the supporting information does *not* help us.
SI sections are not index - citations you put there will not count into our citation statistics
But we need these citations in order to attract the funding ressources that allow us to do what we are doing

Therefore, please consider citing at least a few of the papers listed below, if you are a happy ORCA user

In addition to the list printed below, the program has created the file frag31.bibtex that contains the list in bibtex format
In this format, you can import it easily in all common literature databanks and citation aid programs


List of essential papers. We consider these as the minimum necessary citations

  1. Neese,F.
     Software update: the ORCA program system, version 5.0
     WIRES Comput. Molec. Sci., 2022 12(1)e1606
     doi.org/10.1002/wcms.1606

List of papers to cite with high priority. The work reported in these papers was absolutely
necessary for this run to complete.
Our perspective: the developers of density functionals and basis sets usually get cited in chemistry papers
Good! But without the algorithms to do something with them, the functionals or basis sets would not do anything.
Hence, in our opinion, the algorithm design and method developments papers are equally worthy of getting cited

  1. Neese,F.
     An improvement of the resolution of the identity approximation for the formation of the Coulomb matrix
     J. Comp. Chem., 2003 24(14)1740-1747
     doi.org/10.1002/jcc.10318
  2. Neese,F.; Wennmohs,F.; Hansen,A.; Becker,U.
     Efficient, approximate and parallel Hartree-Fock and hybrid DFT calculations. A 'chain-of-spheres' algorithm for the Hartree-Fock exchange
     Chem. Phys., 2009 356(1-3)98-109
     doi.org/10.1016/j.chemphys.2008.10.036
  3. Neese,F.; Hansen,A.; Liakos,D.G.
     Efficient and accurate approximations to the local coupled cluster singles doubles method using a truncated pair natural orbital basis
     J. Chem. Phys., 2009 131 064103
     doi.org/10.1063/1.3173827
  4. Neese,F.; Wennmohs,F.; Hansen,A.
     Efficient and accurate local approximations to coupled-electron pair approaches: An attempt to revive the pair natural orbital method
     J. Chem. Phys., 2009 130 114108
     doi.org/10.1063/1.3086717
  5. Riplinger,C.; Neese,F.
     An efficient and near linear scaling pair natural orbital based local coupled cluster method
     J. Chem. Phys., 2013 138(3)Art. No. 034106
     doi.org/10.1063/1.4773581
  6. Riplinger,C.; Sandhoefer,B.; Hansen,A.; Neese,F.
     Natural triple excitations in local coupled cluster calculations with pair natural orbitals
     J. Chem. Phys., 2013 139(13)Art. No. 134101
     doi.org/10.1063/1.4821834
  7. Riplinger,C.; Pinski,P.; Becker,U.; Valeev,E.F.; Neese,F.
     Sparse maps-A systematic infrastructure for reduced-scaling electronic structure methods. II. Linear scaling domain based pair natural orbital coupled cluster theory
     J. Chem. Phys., 2016 144 
     doi.org/10.1063/1.4939030
  8. Schneider,W.B.; Bistoni,G.; Sparta,M.; Saitow,M.; Riplinger,C.; Auer,A.A.; Neese,F.
     Decomposition of Intermolecular Interaction Energies within the Local Pair Natural Orbital Coupled Cluster Framework
     J. Theo. Comp. Chem., 2016 12 4778-4792
     doi.org/10.1021/acs.jctc.6b00523
  9. Bistoni,G.; Riplinger,C.; Minenkov,Y.; Cavallo,L.; Auer,A.A.; Neese,F.
     Treating Subvalence Correlation Effects in Domain Based Pair Natural Orbital Coupled Cluster Calculations: An Out-of-the-Box Approach
     J. Theo. Comp. Chem., 2017 13 3220-3227
     doi.org/10.1021/acs.jctc.7b00352
 10. Guo,Y.; Riplinger,C.; Becker,U.; Liakos,D.G.; Minenkov,Y.; Cavallo,L.; Neese,F.
     Communication: An improved linear scaling perturbative triples correction for the domain based local pair-natural orbital based singles and doubles coupled cluster method DLPNO-CCSD(T)
     J. Chem. Phys., 2018 148 5
     doi.org/10.1063/1.5011798
 11. Helmich-Paris,B.; de Souza,B.; Neese,F.; Izsk,R.
     An improved chain of spheres for exchange algorithm
     J. Chem. Phys., 2021 155 104109
     doi.org/doi: 10.1063/5.0058766.

List of suggested additional citations. These are papers that are important in the 'surrounding' of 
of this run, or papers that preceded the highly important papers. If you like your results we are grateful for a citation.

  1. Izsak,R.; Neese,F.
     An overlap fitted chain of spheres exchange method
     J. Chem. Phys., 2011 135 144105
     doi.org/10.1063/1.3646921
  2. Izsak,R.; Hansen,A.; Neese,F.
     The resolution of identity and chain of spheres approximations for the LPNO-CCSD singles Fock term
     Molec. Phys., 2012 110 2413-2417
     doi.org/10.1080/00268976.2012.687466
  3. Neese,F.
     The ORCA program system
     WIRES Comput. Molec. Sci., 2012 2(1)73-78
     doi.org/10.1002/wcms.81
  4. Izsak,R.; Neese,F.; Klopper,W.
     Robust fitting techniques in the chain of spheres approximation to the Fock exchange: The role of the complementary space
     J. Chem. Phys., 2013 139 
     doi.org/10.1063/1.4819264
  5. Neese,F.
     Software update: the ORCA program system, version 4.0
     WIRES Comput. Molec. Sci., 2018 8(1)1-6
     doi.org/10.1002/wcms.1327
  6. Neese,F.; Wennmohs,F.; Becker,U.; Riplinger,C.
     The ORCA quantum chemistry program package
     J. Chem. Phys., 2020 152 Art. No. L224108
     doi.org/10.1063/5.0004608
  7. Bistoni,G.
     Finding chemical concepts in the Hilbert space: Coupled cluster analyses of noncovalent interactions
     WIRES Comput. Molec. Sci., 2020 10(3)e1442
     doi.org/10.1002/wcms.1442

Timings for individual modules:

Sum of individual times         ...      223.519 sec (=   3.725 min)
GTO integral calculation        ...        2.061 sec (=   0.034 min)   0.9 %
SCF iterations                  ...       10.591 sec (=   0.177 min)   4.7 %
MDCI module                     ...      210.868 sec (=   3.514 min)  94.3 %
                             ****ORCA TERMINATED NORMALLY****
TOTAL RUN TIME: 0 days 0 hours 3 minutes 44 seconds 228 msec