                                 *****************
                                 * O   R   C   A *
                                 *****************

                                            #,                                       
                                            ###                                      
                                            ####                                     
                                            #####                                    
                                            ######                                   
                                           ########,                                 
                                     ,,################,,,,,                         
                               ,,#################################,,                 
                          ,,##########################################,,             
                       ,#########################################, ''#####,          
                    ,#############################################,,   '####,        
                  ,##################################################,,,,####,       
                ,###########''''           ''''###############################       
              ,#####''   ,,,,##########,,,,          '''####'''          '####       
            ,##' ,,,,###########################,,,                        '##       
           ' ,,###''''                  '''############,,,                           
         ,,##''                                '''############,,,,        ,,,,,,###''
      ,#''                                            '''#######################'''  
     '                                                          ''''####''''         
             ,#######,   #######,   ,#######,      ##                                
            ,#'     '#,  ##    ##  ,#'     '#,    #''#        ######   ,####,        
            ##       ##  ##   ,#'  ##            #'  '#       #        #'  '#        
            ##       ##  #######   ##           ,######,      #####,   #    #        
            '#,     ,#'  ##    ##  '#,     ,#' ,#      #,         ##   #,  ,#        
             '#######'   ##     ##  '#######'  #'      '#     #####' # '####'        



                  #######################################################
                  #                        -***-                        #
                  #          Department of theory and spectroscopy      #
                  #    Directorship and core code : Frank Neese         #
                  #        Max Planck Institute fuer Kohlenforschung    #
                  #                Kaiser Wilhelm Platz 1               #
                  #                 D-45470 Muelheim/Ruhr               #
                  #                      Germany                        #
                  #                                                     #
                  #                  All rights reserved                #
                  #                        -***-                        #
                  #######################################################


                         Program Version 5.0  -  CURRENT   -
                                (GIT: $76ccee9ca$)
                ($2022-06-14 15:14:42 +0200 $)

                  !                     WARNING:                         !
                  !         This is a DEVELOPMENT version                !

                         (BUILD: $Mi 15. Jun 00:07:41 CEST 2022$)


 With contributions from (in alphabetic order):
   Daniel Aravena         : Magnetic Suceptibility
   Michael Atanasov       : Ab Initio Ligand Field Theory (pilot matlab implementation)
   Alexander A. Auer      : GIAO ZORA, VPT2 properties, NMR spectrum
   Ute Becker             : Parallelization
   Giovanni Bistoni       : ED, misc. LED, open-shell LED, HFLD
   Martin Brehm           : Molecular dynamics
   Dmytro Bykov           : SCF Hessian
   Vijay G. Chilkuri      : MRCI spin determinant printing, contributions to CSF-ICE
   Dipayan Datta          : RHF DLPNO-CCSD density
   Achintya Kumar Dutta   : EOM-CC, STEOM-CC
   Dmitry Ganyushin       : Spin-Orbit,Spin-Spin,Magnetic field MRCI
   Miquel Garcia          : C-PCM and meta-GGA Hessian, CC/C-PCM, Gaussian charge scheme
   Yang Guo               : DLPNO-NEVPT2, F12-NEVPT2, CIM, IAO-localization
   Andreas Hansen         : Spin unrestricted coupled pair/coupled cluster methods
   Benjamin Helmich-Paris : MC-RPA, TRAH-SCF, COSX integrals
   Lee Huntington         : MR-EOM, pCC
   Robert Izsak           : Overlap fitted RIJCOSX, COSX-SCS-MP3, EOM
   Marcus Kettner         : VPT2
   Christian Kollmar      : KDIIS, OOCD, Brueckner-CCSD(T), CCSD density, CASPT2, CASPT2-K, improved NEVPT2
   Simone Kossmann        : Meta GGA functionals, TD-DFT gradient, OOMP2, MP2 Hessian
   Martin Krupicka        : Initial AUTO-CI
   Lucas Lang             : DCDCAS
   Marvin Lechner         : AUTO-CI (C++ implementation), FIC-MRCC
   Dagmar Lenk            : GEPOL surface, SMD
   Dimitrios Liakos       : Extrapolation schemes; Compound Job, initial MDCI parallelization
   Dimitrios Manganas     : Further ROCIS development; embedding schemes
   Dimitrios Pantazis     : SARC Basis sets
   Anastasios Papadopoulos: AUTO-CI, single reference methods and gradients
   Taras Petrenko         : DFT Hessian,TD-DFT gradient, ASA, ECA, R-Raman, ABS, FL, XAS/XES, NRVS
   Peter Pinski           : DLPNO-MP2, DLPNO-MP2 Gradient
   Christoph Reimann      : Effective Core Potentials
   Marius Retegan         : Local ZFS, SOC
   Christoph Riplinger    : Optimizer, TS searches, QM/MM, DLPNO-CCSD(T), (RO)-DLPNO pert. Triples
   Tobias Risthaus        : Range-separated hybrids, TD-DFT gradient, RPA, STAB
   Michael Roemelt        : Original ROCIS implementation
   Masaaki Saitow         : Open-shell DLPNO-CCSD energy and density
   Barbara Sandhoefer     : DKH picture change effects
   Avijit Sen             : IP-ROCIS
   Kantharuban Sivalingam : CASSCF convergence, NEVPT2, FIC-MRCI
   Bernardo de Souza      : ESD, SOC TD-DFT
   Georgi Stoychev        : AutoAux, RI-MP2 NMR, DLPNO-MP2 response
   Willem Van den Heuvel  : Paramagnetic NMR
   Boris Wezisla          : Elementary symmetry handling
   Frank Wennmohs         : Technical directorship


 We gratefully acknowledge several colleagues who have allowed us to
 interface, adapt or use parts of their codes:
   Stefan Grimme, W. Hujo, H. Kruse, P. Pracht,  : VdW corrections, initial TS optimization,
                  C. Bannwarth, S. Ehlert          DFT functionals, gCP, sTDA/sTD-DF
   Ed Valeev, F. Pavosevic, A. Kumar             : LibInt (2-el integral package), F12 methods
   Garnet Chan, S. Sharma, J. Yang, R. Olivares  : DMRG
   Ulf Ekstrom                                   : XCFun DFT Library
   Mihaly Kallay                                 : mrcc  (arbitrary order and MRCC methods)
   Jiri Pittner, Ondrej Demel                    : Mk-CCSD
   Frank Weinhold                                : gennbo (NPA and NBO analysis)
   Christopher J. Cramer and Donald G. Truhlar   : smd solvation model
   Lars Goerigk                                  : TD-DFT with DH, B97 family of functionals
   V. Asgeirsson, H. Jonsson                     : NEB implementation
   FAccTs GmbH                                   : IRC, NEB, NEB-TS, DLPNO-Multilevel, CI-OPT
                                                   MM, QMMM, 2- and 3-layer-ONIOM, Crystal-QMMM,
                                                   LR-CPCM, SF, NACMEs, symmetry and pop. for TD-DFT,
                                                   nearIR, NL-DFT gradient (VV10), updates on ESD,
                                                   ML-optimized integration grids
   S Lehtola, MJT Oliveira, MAL Marques          : LibXC Library
   Liviu Ungur et al                             : ANISO software


 Your calculation uses the libint2 library for the computation of 2-el integrals
 For citations please refer to: http://libint.valeyev.net

 Your ORCA version has been built with support for libXC version: 5.2.2
 For citations please refer to: https://tddft.org/programs/libxc/

 This ORCA versions uses:
   CBLAS   interface :  Fast vector & matrix operations
   LAPACKE interface :  Fast linear algebra routines
   SCALAPACK package :  Parallel linear algebra routines
   Shared memory     :  Shared parallel matrices


================================================================================

----- Orbital basis set information -----
Your calculation utilizes the basis: aug-cc-pVTZ 
    H, B-Ne : Obtained from the ccRepo (grant-hill.group.shef.ac.uk/ccrepo) Feb. 2017
              R. A. Kendall, T. H. Dunning, Jr., R. J. Harrison, J. Chem. Phys. 96, 6796 (1992)
         He : Obtained from the ccRepo (grant-hill.group.shef.ac.uk/ccrepo) Feb. 2017
              D. E. Woon, T. H. Dunning, Jr., J. Chem. Phys. 100, 2975 (1994)
  Li-Be, Na : Obtained from the ccRepo (grant-hill.group.shef.ac.uk/ccrepo) Feb. 2017
              B. P. Prascher, D. E. Woon, K. A. Peterson, T. H. Dunning, Jr., A. K. Wilson, Theor. Chem. Acc. 128, 69 (2011)
         Mg : Obtained from the Peterson Research Group Website (tyr0.chem.wsu.edu/~kipeters) Feb. 2017
              B. P. Prascher, D. E. Woon, K. A. Peterson, T. H. Dunning, Jr., A. K. Wilson, Theor. Chem. Acc. 128, 69 (2011)
      Al-Ar : Obtained from the ccRepo (grant-hill.group.shef.ac.uk/ccrepo) Feb. 2017
              D. E. Woon, T. H. Dunning, Jr., J. Chem. Phys. 98, 1358 (1993)
      Sc-Zn : Obtained from the ccRepo (grant-hill.group.shef.ac.uk/ccrepo) Feb. 2017
              N. B. Balabanov, K. A. Peterson, J. Chem. Phys. 123, 064107 (2005)
              N. B. Balabanov, K. A. Peterson, J. Chem. Phys. 125, 074110 (2006)
      Ga-Kr : Obtained from the ccRepo (grant-hill.group.shef.ac.uk/ccrepo) Feb. 2017
              A. K. Wilson, D. E. Woon, K. A. Peterson, T. H. Dunning, Jr., J. Chem. Phys. 110, 7667 (1999)
     Ag, Au : Obtained from the Peterson Research Group Website (tyr0.chem.wsu.edu/~kipeters) Feb. 2017
              K. A. Peterson, C. Puzzarini, Theor. Chem. Acc. 114, 283 (2005)

----- AuxJ basis set information -----
----- AuxC basis set information -----
================================================================================
                                        WARNINGS
                       Please study these warnings very carefully!
================================================================================


WARNING: Post HF methods need fully converged wavefunctions
  ===> : Setting SCFConvForced true
         You can overwrite this default with %scf ConvForced false 


WARNING: MDCI localization with Augmented Hessian Foster-Boys
  ===> : Switching off randomization!

INFO   : the flag for use of the SHARK integral package has been found!

================================================================================
                                       INPUT FILE
================================================================================
NAME = frag51.inp
|  1> ! DLPNO-CCSD(T1) aug-cc-pVTZ DEFGRID3 RIJCOSX def2/J aug-cc-pVQZ/C verytightscf TightPNO LED
|  2> 
|  3> %pal nprocs 16 end
|  4> %maxcore 4000
|  5> %scf maxiter 999 end
|  6> %basis auxj "autoaux" auxc "autoaux" autoauxlmax true end
|  7> %mdci TCutPNO 1e-7 printlevel 3 end
|  8> 
|  9> * xyz 0 1
| 10> O(1)    -0.845377446     1.902266646    -1.724481185
| 11> H(1)    -1.198971324     1.335278306    -1.003913817
| 12> H(1)    -0.953209570     1.388839038    -2.529056860
| 13> O(2)    -1.753042425     0.416462959     0.356105280
| 14> H(2)    -1.120933301    -0.183098298     0.812596940
| 15> H(2)    -2.593310567    -0.048459739     0.359102074
| 16> *
| 17> 
| 18>                          ****END OF INPUT****
================================================================================

                       ****************************
                       * Single Point Calculation *
                       ****************************

---------------------------------
CARTESIAN COORDINATES (ANGSTROEM)
---------------------------------
  O     -0.845377    1.902267   -1.724481
  H     -1.198971    1.335278   -1.003914
  H     -0.953210    1.388839   -2.529057
  O     -1.753042    0.416463    0.356105
  H     -1.120933   -0.183098    0.812597
  H     -2.593311   -0.048460    0.359102

----------------------------
CARTESIAN COORDINATES (A.U.)
----------------------------
  NO LB      ZA    FRAG     MASS         X           Y           Z
   0 O     8.0000    1    15.999   -1.597532    3.594763   -3.258797
   1 H     1.0000    1     1.008   -2.265727    2.523310   -1.897122
   2 H     1.0000    1     1.008   -1.801305    2.624525   -4.779225
   3 O     8.0000    2    15.999   -3.312770    0.787001    0.672941
   4 H     1.0000    2     1.008   -2.118257   -0.346006    1.535586
   5 H     1.0000    2     1.008   -4.900647   -0.091576    0.678605

----------------------------------------------
CARTESIAN COORDINATES OF FRAGMENTS (ANGSTROEM)
----------------------------------------------

 FRAGMENT 1 
  O    -0.845377    1.902267   -1.724481
  H    -1.198971    1.335278   -1.003914
  H    -0.953210    1.388839   -2.529057

 FRAGMENT 2 
  O    -1.753042    0.416463    0.356105
  H    -1.120933   -0.183098    0.812597
  H    -2.593311   -0.048460    0.359102

--------------------------------
INTERNAL COORDINATES (ANGSTROEM)
--------------------------------
 O      0   0   0     0.000000000000     0.00000000     0.00000000
 H      1   0   0     0.982711422586     0.00000000     0.00000000
 H      1   2   0     0.960509079824   105.39089909     0.00000000
 O      2   1   3     1.732301466561   175.39587416   162.14516803
 H      4   2   1     0.983575254462   118.82512313   286.36252630
 H      4   2   1     0.960319033629   122.62222077   150.93082218

---------------------------
INTERNAL COORDINATES (A.U.)
---------------------------
 O      0   0   0     0.000000000000     0.00000000     0.00000000
 H      1   0   0     1.857055457364     0.00000000     0.00000000
 H      1   2   0     1.815099110012   105.39089909     0.00000000
 O      2   1   3     3.273575353191   175.39587416   162.14516803
 H      4   2   1     1.858687863034   118.82512313   286.36252630
 H      4   2   1     1.814739974751   122.62222077   150.93082218

---------------------
BASIS SET INFORMATION
---------------------
There are 2 groups of distinct atoms

 Group   1 Type O   : 19s6p3d2f contracted to 5s4p3d2f pattern {88111/3111/111/11}
 Group   2 Type H   : 6s3p2d contracted to 4s3p2d pattern {3111/111/11}

Atom   0O    basis set group =>   1
Atom   1H    basis set group =>   2
Atom   2H    basis set group =>   2
Atom   3O    basis set group =>   1
Atom   4H    basis set group =>   2
Atom   5H    basis set group =>   2
---------------------------------
AUXILIARY/J BASIS SET INFORMATION
---------------------------------
There are 2 groups of distinct atoms

 Group   1 Type O   : 16s14p13d7f5g3h2i contracted to 16s14p13d7f5g3h2i pattern {1111111111111111/11111111111111/1111111111111/1111111/11111/111/11}
 Group   2 Type H   : 14s6p5d4f3g contracted to 14s6p5d4f3g pattern {11111111111111/111111/11111/1111/111}

Atom   0O    basis set group =>   1
Atom   1H    basis set group =>   2
Atom   2H    basis set group =>   2
Atom   3O    basis set group =>   1
Atom   4H    basis set group =>   2
Atom   5H    basis set group =>   2
---------------------------------
AUXILIARY/C BASIS SET INFORMATION
---------------------------------
There are 2 groups of distinct atoms

 Group   1 Type O   : 16s14p13d7f5g3h2i contracted to 16s14p13d7f5g3h2i pattern {1111111111111111/11111111111111/1111111111111/1111111/11111/111/11}
 Group   2 Type H   : 14s6p5d4f3g contracted to 14s6p5d4f3g pattern {11111111111111/111111/11111/1111/111}

Atom   0O    basis set group =>   1
Atom   1H    basis set group =>   2
Atom   2H    basis set group =>   2
Atom   3O    basis set group =>   1
Atom   4H    basis set group =>   2
Atom   5H    basis set group =>   2

Checking for AutoStart:
The File: frag51.gbw exists
Trying to determine its content:
     ... Fine, the file contains calculation information
     ... Fine, the calculation information was read
     ... Fine, the file contains a basis set
     ... Fine, the basis set was read
     ... Fine, the file contains a geometry
     ... Fine, the geometry was read
     ... Fine, the file contains a set of orbitals
     ... Fine, the orbitals can be read
     => possible old guess file was deleted
     => GBW file was renamed to GES file
     => GES file is set as startup file
     => Guess is set to MORead
     ... now leaving AutoStart



           ************************************************************
           *        Program running with 16 parallel MPI-processes    *
           *              working on a common directory               *
           ************************************************************
------------------------------------------------------------------------------
                           ORCA GTO INTEGRAL CALCULATION
                           -- RI-GTO INTEGRALS CHOSEN --
------------------------------------------------------------------------------
------------------------------------------------------------------------------
                   ___                                                        
                  /   \      - P O W E R E D   B Y -                         
                 /     \                                                     
                 |  |  |   _    _      __       _____    __    __             
                 |  |  |  | |  | |    /  \     |  _  \  |  |  /  |          
                  \  \/   | |  | |   /    \    | | | |  |  | /  /          
                 / \  \   | |__| |  /  /\  \   | |_| |  |  |/  /          
                |  |  |   |  __  | /  /__\  \  |    /   |      \           
                |  |  |   | |  | | |   __   |  |    \   |  |\   \          
                \     /   | |  | | |  |  |  |  | |\  \  |  | \   \       
                 \___/    |_|  |_| |__|  |__|  |_| \__\ |__|  \__/        
                                                                              
                      - O R C A' S   B I G   F R I E N D -                    
                                      &                                       
                       - I N T E G R A L  F E E D E R -                       
                                                                              
 v1 FN, 2020, v2 2021                                                         
------------------------------------------------------------------------------


Reading SHARK input file frag51.SHARKINP.tmp ... ok
Calculating pre-screening integrals         ... done (  0.0 sec) Dimension = 76
Calculating pre-screening integrals (ORCA)  ... done (  0.0 sec) Dimension = 64
Organizing shell pair data                  ... done (  0.0 sec)
Shell pair information
Total number of shell pairs                 ...      2926
Shell pairs after pre-screening             ...      2767
Total number of primitive shell pairs       ...      3934
Primitive shell pairs kept                  ...      3550
          la=0 lb=0:    657 shell pairs
          la=1 lb=0:    725 shell pairs
          la=1 lb=1:    210 shell pairs
          la=2 lb=0:    500 shell pairs
          la=2 lb=1:    280 shell pairs
          la=2 lb=2:    105 shell pairs
          la=3 lb=0:    144 shell pairs
          la=3 lb=1:     80 shell pairs
          la=3 lb=2:     56 shell pairs
          la=3 lb=3:     10 shell pairs

Calculating one electron integrals          ... done (  0.0 sec)
Calculating RI/J V-Matrix + Cholesky decomp.... done (  0.2 sec)
Calculating RI/C V-Matrix + Cholesky decomp.... done (  0.2 sec)
Calculating Nuclear repulsion               ... done (  0.0 sec) ENN=     37.667884093635 Eh

SHARK setup successfully completed in   0.5 seconds

Maximum memory used throughout the entire GTOINT-calculation: 37.7 MB


           ************************************************************
           *        Program running with 16 parallel MPI-processes    *
           *              working on a common directory               *
           ************************************************************
-------------------------------------------------------------------------------
                                 ORCA SCF
-------------------------------------------------------------------------------

------------
SCF SETTINGS
------------
Hamiltonian:
 Ab initio Hamiltonian  Method          .... Hartree-Fock(GTOs)
 RI-approximation to the Coulomb term is turned on
   Number of AuxJ basis functions       .... 1000
   RIJ-COSX (HFX calculated with COS-X)).... on


General Settings:
 Integral files         IntName         .... frag51
 Hartree-Fock type      HFTyp           .... RHF
 Total Charge           Charge          ....    0
 Multiplicity           Mult            ....    1
 Number of Electrons    NEL             ....   20
 Basis Dimension        Dim             ....  184
 Nuclear Repulsion      ENuc            ....     37.6678840936 Eh

Convergence Acceleration:
 DIIS                   CNVDIIS         .... on
   Start iteration      DIISMaxIt       ....    12
   Startup error        DIISStart       ....  0.200000
   # of expansion vecs  DIISMaxEq       ....     5
   Bias factor          DIISBfac        ....   1.050
   Max. coefficient     DIISMaxC        ....  10.000
 Trust-Rad. Augm. Hess. CNVTRAH         .... auto
   Auto Start mean grad. ratio tolernc. ....  1.125000
   Auto Start start iteration           ....     1
   Auto Start num. interpolation iter.  ....    10
   Max. Number of Micro iterations      ....    24
   Max. Number of Macro iterations      .... Maxiter - #DIIS iter
   Max. Number of back steps            ....     5
   Number of Davidson start vectors     ....     2
   Converg. threshold I  (grad. norm)   ....   2.000e-06
   Converg. threshold II (energy diff.) ....   1.000e-09
   Grad. Scal. Fac. for Micro threshold ....   0.100
   Minimum threshold for Micro iter.    ....   1.000e-02
   NR start threshold (gradient norm)   ....   1.000e-04
   Initial trust radius                 ....   0.400
   Minimum AH scaling param. (alpha)    ....   1.000
   Maximum AH scaling param. (alpha)    .... 1000.000
   Inactive MOs                         .... canonicalized
   Orbital update algorithm             .... Taylor
   White noise on init. David. guess    .... on
   Maximum white noise                  ....   0.010
   Quad. conv. algorithm                .... NR
   Preconditioner                       .... approx. diagonal
 SOSCF                  CNVSOSCF        .... on
   Start iteration      SOSCFMaxIt      ....   150
   Startup grad/error   SOSCFStart      ....  0.003300
 Level Shifting         CNVShift        .... on
   Level shift para.    LevelShift      ....    0.2500
   Turn off err/grad.   ShiftErr        ....    0.0010
 Zerner damping         CNVZerner       .... off
 Static damping         CNVDamp         .... on
   Fraction old density DampFac         ....    0.7000
   Max. Damping (<1)    DampMax         ....    0.9800
   Min. Damping (>=0)   DampMin         ....    0.0000
   Turn off err/grad.   DampErr         ....    0.1000

SCF Procedure:
 Maximum # iterations   MaxIter         ....   999
 SCF integral mode      SCFMode         .... Direct
   Integral package                     .... SHARK and LIBINT hybrid scheme
 Reset frequency        DirectResetFreq ....    20
 Integral Threshold     Thresh          ....  1.000e-12 Eh
 Primitive CutOff       TCut            ....  1.000e-14 Eh

Convergence Tolerance:
 Convergence Check Mode ConvCheckMode   .... Total+1el-Energy
 Convergence forced     ConvForced      .... 1
 Energy Change          TolE            ....  1.000e-09 Eh
 1-El. energy change                    ....  1.000e-06 Eh
 Orbital Gradient       TolG            ....  2.000e-06
 Orbital Rotation angle TolX            ....  2.000e-06
 DIIS Error             TolErr          ....  1.000e-08


Diagonalization of the overlap matrix:
Smallest eigenvalue                        ... 2.351e-04
Time for diagonalization                   ...    0.005 sec
Threshold for overlap eigenvalues          ... 1.000e-08
Number of eigenvalues below threshold      ... 0
Time for construction of square roots      ...    0.006 sec
Total time needed                          ...    0.012 sec

---------------------
INITIAL GUESS: MOREAD
---------------------
Guess MOs are being read from file: frag51.ges
Input Geometry matches current geometry (good)
Input basis set matches current basis set (good)
MOs were renormalized
MOs were reorthogonalized (Cholesky)
                      ------------------
                      INITIAL GUESS DONE (   0.0 sec)
                      ------------------
--------------------
COSX GRID GENERATION
--------------------

GRIDX 1
-------
General Integration Accuracy     IntAcc      ... 4.020
Radial Grid Type                 RadialGrid  ... OptM3 with GC (2021)
Angular Grid (max. ang.)         AngularGrid ... 2 (Lebedev-110)
Angular grid pruning method      GridPruning ... 4 (adaptive)
Weight generation scheme         WeightScheme... Becke
Basis function cutoff            BFCut       ... 1.0000e-12
Integration weight cutoff        WCut        ... 1.0000e-14
Angular grids for H and He will be reduced by one unit
Partially contracted basis set               ... on
Rotationally invariant grid construction     ... off

Total number of grid points                  ...     8193
Total number of batches                      ...      131
Average number of points per batch           ...       62
Average number of grid points per atom       ...     1366
UseSFitting                                  ... on

GRIDX 2
-------
General Integration Accuracy     IntAcc      ... 4.338
Radial Grid Type                 RadialGrid  ... OptM3 with GC (2021)
Angular Grid (max. ang.)         AngularGrid ... 3 (Lebedev-194)
Angular grid pruning method      GridPruning ... 4 (adaptive)
Weight generation scheme         WeightScheme... Becke
Basis function cutoff            BFCut       ... 1.0000e-12
Integration weight cutoff        WCut        ... 1.0000e-14
Angular grids for H and He will be reduced by one unit
Partially contracted basis set               ... on
Rotationally invariant grid construction     ... off

Total number of grid points                  ...    18739
Total number of batches                      ...      296
Average number of points per batch           ...       63
Average number of grid points per atom       ...     3123
UseSFitting                                  ... on

GRIDX 3
-------
General Integration Accuracy     IntAcc      ... 4.871
Radial Grid Type                 RadialGrid  ... OptM3 with GC (2021)
Angular Grid (max. ang.)         AngularGrid ... 4 (Lebedev-302)
Angular grid pruning method      GridPruning ... 4 (adaptive)
Weight generation scheme         WeightScheme... Becke
Basis function cutoff            BFCut       ... 1.0000e-12
Integration weight cutoff        WCut        ... 1.0000e-14
Angular grids for H and He will be reduced by one unit
Partially contracted basis set               ... on
Rotationally invariant grid construction     ... off

Total number of grid points                  ...    36561
Total number of batches                      ...      575
Average number of points per batch           ...       63
Average number of grid points per atom       ...     6094
UseSFitting                                  ... on

Time for X-Grid setup             =    0.264 sec

 re-compute Schwartz prescreening matrix in partially contracted basis (1) ...done (   0.049 sec)
--------------
SCF ITERATIONS
--------------
ITER       Energy         Delta-E        Max-DP      RMS-DP      [F,P]     Damp
               ***  Starting incremental Fock matrix formation  ***
                      *** Initiating the SOSCF procedure ***
                      *** Re-Reading the Fockian *** 
                      *** Removing any level shift *** 
ITER       Energy         Delta-E        Max-DP      RMS-DP   
  0   -152.1211159405   0.000000000000 0.00754565  0.00011890
               *** Restarting incremental Fock matrix formation ***
  1   -152.1213565023  -0.000240561802 0.00743139  0.00011374
  2   -152.1213566489  -0.000000146660 0.00061103  0.00000677
  3   -152.1213563850   0.000000263977 0.00006030  0.00000074
  4   -152.1213563709   0.000000014033 0.00000480  0.00000013
  5   -152.1213563757  -0.000000004809 0.00000989  0.00000011
  6   -152.1213563777  -0.000000001949 0.00000109  0.00000002
  7   -152.1213563775   0.000000000177 0.00000040  0.00000000
                 **** Energy Check signals convergence ****
              ***Rediagonalizing the Fockian in SOSCF/NRSCF***

               *****************************************************
               *                     SUCCESS                       *
               *           SCF CONVERGED AFTER   8 CYCLES          *
               *****************************************************

Old exchange energy                            =    -17.880297813 Eh
New exchange energy                            =    -17.880064734 Eh
Exchange energy change after final integration =      0.000233080 Eh
Total energy after final integration           =   -152.121123298 Eh
Final COS-X integration done in                =     0.456 sec

----------------
TOTAL SCF ENERGY
----------------

Total Energy       :         -152.12112330 Eh           -4139.42621 eV

Components:
Nuclear Repulsion  :           37.66788409 Eh            1024.99524 eV
Electronic Energy  :         -189.78900739 Eh           -5164.42145 eV
One Electron Energy:         -284.74970335 Eh           -7748.43335 eV
Two Electron Energy:           94.96069596 Eh            2584.01191 eV
Max COSX asymmetry :            0.00000045 Eh               0.00001 eV

Virial components:
Potential Energy   :         -303.98122147 Eh           -8271.74956 eV
Kinetic Energy     :          151.86009817 Eh            4132.32335 eV
Virial Ratio       :            2.00171885


---------------
SCF CONVERGENCE
---------------

  Last Energy change         ...    3.0184e-11  Tolerance :   1.0000e-09
  Last MAX-Density change    ...    1.7764e-15  Tolerance :   1.0000e-08
  Last RMS-Density change    ...    1.6810e-17  Tolerance :   1.0000e-09

             **** THE GBW FILE WAS UPDATED (frag51.gbw) ****
             **** DENSITY frag51.scfp WAS UPDATED ****
             **** ENERGY FILE WAS UPDATED (frag51.en.tmp) ****
             **** THE GBW FILE WAS UPDATED (frag51.gbw) ****
             **** DENSITY frag51.scfp WAS UPDATED ****
             **** ENERGY FILE WAS UPDATED (frag51.en.tmp) ****
----------------
ORBITAL ENERGIES
----------------

  NO   OCC          E(Eh)            E(eV) 
   0   2.0000     -20.600904      -560.5791 
   1   2.0000     -20.524254      -558.4934 
   2   2.0000      -1.382719       -37.6257 
   3   2.0000      -1.306160       -35.5424 
   4   2.0000      -0.745090       -20.2749 
   5   2.0000      -0.695461       -18.9245 
   6   2.0000      -0.609972       -16.5982 
   7   2.0000      -0.557590       -15.1728 
   8   2.0000      -0.523205       -14.2371 
   9   2.0000      -0.469034       -12.7631 
  10   0.0000       0.018348         0.4993 
  11   0.0000       0.042526         1.1572 
  12   0.0000       0.048380         1.3165 
  13   0.0000       0.073970         2.0128 
  14   0.0000       0.125479         3.4145 
  15   0.0000       0.141826         3.8593 
  16   0.0000       0.162975         4.4348 
  17   0.0000       0.171134         4.6568 
  18   0.0000       0.176122         4.7925 
  19   0.0000       0.189902         5.1675 
  20   0.0000       0.209868         5.7108 
  21   0.0000       0.225599         6.1389 
  22   0.0000       0.240589         6.5468 
  23   0.0000       0.257643         7.0108 
  24   0.0000       0.259572         7.0633 
  25   0.0000       0.280431         7.6309 
  26   0.0000       0.305541         8.3142 
  27   0.0000       0.307923         8.3790 
  28   0.0000       0.364491         9.9183 
  29   0.0000       0.371298        10.1035 
  30   0.0000       0.380374        10.3505 
  31   0.0000       0.406750        11.0682 
  32   0.0000       0.422966        11.5095 
  33   0.0000       0.435749        11.8573 
  34   0.0000       0.446828        12.1588 
  35   0.0000       0.462181        12.5766 
  36   0.0000       0.498858        13.5746 
  37   0.0000       0.587075        15.9751 
  38   0.0000       0.597411        16.2564 
  39   0.0000       0.605233        16.4692 
  40   0.0000       0.680885        18.5278 
  41   0.0000       0.698163        18.9980 
  42   0.0000       0.721784        19.6407 
  43   0.0000       0.736358        20.0373 
  44   0.0000       0.749317        20.3899 
  45   0.0000       0.768645        20.9159 
  46   0.0000       0.775513        21.1028 
  47   0.0000       0.801556        21.8114 
  48   0.0000       0.828130        22.5346 
  49   0.0000       0.857787        23.3416 
  50   0.0000       0.895782        24.3755 
  51   0.0000       0.908148        24.7120 
  52   0.0000       0.917804        24.9747 
  53   0.0000       0.948267        25.8037 
  54   0.0000       0.953062        25.9341 
  55   0.0000       0.958914        26.0934 
  56   0.0000       0.973685        26.4953 
  57   0.0000       0.977464        26.5982 
  58   0.0000       0.997737        27.1498 
  59   0.0000       1.002080        27.2680 
  60   0.0000       1.020644        27.7731 
  61   0.0000       1.032081        28.0844 
  62   0.0000       1.047121        28.4936 
  63   0.0000       1.061836        28.8940 
  64   0.0000       1.066358        29.0171 
  65   0.0000       1.143241        31.1092 
  66   0.0000       1.152059        31.3491 
  67   0.0000       1.177864        32.0513 
  68   0.0000       1.204284        32.7702 
  69   0.0000       1.228648        33.4332 
  70   0.0000       1.251898        34.0659 
  71   0.0000       1.283262        34.9193 
  72   0.0000       1.288483        35.0614 
  73   0.0000       1.354855        36.8675 
  74   0.0000       1.456502        39.6334 
  75   0.0000       1.485971        40.4353 
  76   0.0000       1.504473        40.9388 
  77   0.0000       1.571028        42.7498 
  78   0.0000       1.580017        42.9945 
  79   0.0000       1.602728        43.6124 
  80   0.0000       1.653097        44.9831 
  81   0.0000       1.669911        45.4406 
  82   0.0000       1.713249        46.6199 
  83   0.0000       1.742236        47.4087 
  84   0.0000       1.850789        50.3625 
  85   0.0000       1.857837        50.5543 
  86   0.0000       1.943474        52.8846 
  87   0.0000       1.986114        54.0449 
  88   0.0000       2.015723        54.8506 
  89   0.0000       2.100194        57.1492 
  90   0.0000       2.123093        57.7723 
  91   0.0000       2.275002        61.9060 
  92   0.0000       2.302992        62.6676 
  93   0.0000       2.351599        63.9903 
  94   0.0000       2.366972        64.4086 
  95   0.0000       2.419455        65.8367 
  96   0.0000       2.438852        66.3645 
  97   0.0000       2.471211        67.2451 
  98   0.0000       2.480819        67.5065 
  99   0.0000       2.512426        68.3666 
 100   0.0000       2.525423        68.7203 
 101   0.0000       2.570360        69.9430 
 102   0.0000       2.590557        70.4926 
 103   0.0000       2.657237        72.3071 
 104   0.0000       2.681917        72.9787 
 105   0.0000       2.715489        73.8922 
 106   0.0000       2.735036        74.4241 
 107   0.0000       2.755419        74.9788 
 108   0.0000       2.796045        76.0843 
 109   0.0000       2.842799        77.3565 
 110   0.0000       2.872672        78.1694 
 111   0.0000       2.925521        79.6075 
 112   0.0000       2.963662        80.6453 
 113   0.0000       3.026255        82.3486 
 114   0.0000       3.109840        84.6230 
 115   0.0000       3.169068        86.2347 
 116   0.0000       3.736270       101.6691 
 117   0.0000       3.755268       102.1860 
 118   0.0000       3.841129       104.5224 
 119   0.0000       4.033670       109.7617 
 120   0.0000       4.077355       110.9505 
 121   0.0000       4.133538       112.4793 
 122   0.0000       4.185983       113.9064 
 123   0.0000       4.190245       114.0224 
 124   0.0000       4.232137       115.1623 
 125   0.0000       4.271414       116.2311 
 126   0.0000       4.301502       117.0498 
 127   0.0000       4.334094       117.9367 
 128   0.0000       4.352816       118.4461 
 129   0.0000       4.404290       119.8468 
 130   0.0000       4.436606       120.7262 
 131   0.0000       4.482400       121.9723 
 132   0.0000       4.487876       122.1213 
 133   0.0000       4.505607       122.6038 
 134   0.0000       4.542552       123.6091 
 135   0.0000       4.586619       124.8083 
 136   0.0000       4.639072       126.2356 
 137   0.0000       4.672055       127.1331 
 138   0.0000       4.785006       130.2066 
 139   0.0000       4.836284       131.6020 
 140   0.0000       4.874345       132.6377 
 141   0.0000       5.025249       136.7440 
 142   0.0000       5.088647       138.4691 
 143   0.0000       5.102452       138.8448 
 144   0.0000       5.204804       141.6299 
 145   0.0000       5.255633       143.0130 
 146   0.0000       5.297917       144.1637 
 147   0.0000       5.359262       145.8329 
 148   0.0000       5.374529       146.2484 
 149   0.0000       5.495432       149.5383 
 150   0.0000       5.598696       152.3483 
 151   0.0000       5.658984       153.9888 
 152   0.0000       5.748732       156.4310 
 153   0.0000       5.869083       159.7059 
 154   0.0000       6.236637       169.7075 
 155   0.0000       6.290864       171.1831 
 156   0.0000       6.531923       177.7427 
 157   0.0000       6.578680       179.0150 
 158   0.0000       6.795753       184.9218 
 159   0.0000       6.838424       186.0830 
 160   0.0000       6.915834       188.1894 
 161   0.0000       7.013382       190.8438 
 162   0.0000       7.143861       194.3943 
 163   0.0000       7.200765       195.9428 
 164   0.0000       7.264390       197.6741 
 165   0.0000       7.298278       198.5962 
 166   0.0000       7.309979       198.9146 
 167   0.0000       7.312790       198.9911 
 168   0.0000       7.350715       200.0231 
 169   0.0000       7.381978       200.8738 
 170   0.0000       7.409154       201.6133 
 171   0.0000       7.463633       203.0958 
 172   0.0000       7.560146       205.7220 
 173   0.0000       7.586131       206.4291 
 174   0.0000       7.661583       208.4823 
 175   0.0000       7.755463       211.0369 
 176   0.0000       7.872907       214.2327 
 177   0.0000       7.938329       216.0129 
 178   0.0000       8.039114       218.7554 
 179   0.0000       8.140236       221.5071 
 180   0.0000       8.766497       238.5485 
 181   0.0000       8.949819       243.5370 
 182   0.0000      15.867386       431.7735 
 183   0.0000      16.754985       455.9263 

--------------------
FRAGMENT INFORMATION
--------------------
Fragment  1:    0   1   2 
Fragment  2:    3   4   5 


                    ********************************
                    * MULLIKEN POPULATION ANALYSIS *
                    ********************************

-------------------------
MULLIKEN FRAGMENT CHARGES
-------------------------
 Fragment   0 :  -0.035528
 Fragment   1 :   0.035528
Sum of fragment charges:    0.0000000

---------------------------------
MULLIKEN FRAGMENT OVERLAP CHARGES
---------------------------------
                  0          1    
      0      11.226545  -0.124824
      1      -0.124824  11.140894

-----------------------
MULLIKEN ATOMIC CHARGES
-----------------------
   0 O :   -0.514173
   1 H :    0.281817
   2 H :    0.196829
   3 O :   -0.426674
   4 H :    0.243108
   5 H :    0.219094
Sum of atomic charges:    0.0000000

--------------------------------
MULLIKEN REDUCED ORBITAL CHARGES
--------------------------------
  0 O s       :     3.885971  s :     3.885971
      pz      :     1.261761  p :     4.602636
      px      :     1.787860
      py      :     1.553016
      dz2     :     0.000691  d :     0.024441
      dxz     :     0.003026
      dyz     :     0.014851
      dx2y2   :     0.002474
      dxy     :     0.003400
      f0      :     0.000024  f :     0.001125
      f+1     :     0.000118
      f-1     :     0.000177
      f+2     :     0.000293
      f-2     :     0.000302
      f+3     :     0.000145
      f-3     :     0.000066
  1 H s       :     0.595757  s :     0.595757
      pz      :     0.007482  p :     0.071784
      px      :     0.045078
      py      :     0.019223
      dz2     :     0.010275  d :     0.050642
      dxz     :     0.012805
      dyz     :     0.012071
      dx2y2   :     0.008556
      dxy     :     0.006934
  2 H s       :     0.682038  s :     0.682038
      pz      :     0.024196  p :     0.103537
      px      :     0.048709
      py      :     0.030632
      dz2     :     0.003656  d :     0.017597
      dxz     :     0.007020
      dyz     :     0.003074
      dx2y2   :     0.001658
      dxy     :     0.002189
  3 O s       :     3.866064  s :     3.866064
      pz      :     1.753926  p :     4.548955
      px      :     1.253282
      py      :     1.541748
      dz2     :    -0.000875  d :     0.010813
      dxz     :     0.000331
      dyz     :     0.002430
      dx2y2   :     0.001388
      dxy     :     0.007539
      f0      :     0.000265  f :     0.000842
      f+1     :     0.000149
      f-1     :    -0.000021
      f+2     :     0.000048
      f-2     :     0.000286
      f+3     :     0.000006
      f-3     :     0.000109
  4 H s       :     0.642718  s :     0.642718
      pz      :     0.046564  p :     0.094813
      px      :     0.024050
      py      :     0.024198
      dz2     :     0.004965  d :     0.019361
      dxz     :     0.003458
      dyz     :     0.003156
      dx2y2   :     0.005048
      dxy     :     0.002735
  5 H s       :     0.661226  s :     0.661226
      pz      :     0.048131  p :     0.098834
      px      :     0.024287
      py      :     0.026416
      dz2     :     0.000297  d :     0.020846
      dxz     :     0.009272
      dyz     :     0.002402
      dx2y2   :     0.004259
      dxy     :     0.004616


                     *******************************
                     * LOEWDIN POPULATION ANALYSIS *
                     *******************************

------------------------
LOEWDIN FRAGMENT CHARGES
------------------------
 Fragment   0 :  -0.234630
 Fragment   1 :   0.234630

----------------------------
LOEWDIN FRAGMENT BOND ORDERS
----------------------------
                  0          1    
      0      18.335448   0.729500
      1       0.729500  17.335150

----------------------
LOEWDIN ATOMIC CHARGES
----------------------
   0 O :    1.023865
   1 H :   -0.738372
   2 H :   -0.520124
   3 O :    1.097222
   4 H :   -0.406431
   5 H :   -0.456160

-------------------------------
LOEWDIN REDUCED ORBITAL CHARGES
-------------------------------
  0 O s       :     3.007565  s :     3.007565
      pz      :     1.153824  p :     3.883351
      px      :     1.394205
      py      :     1.335321
      dz2     :     0.017451  d :     0.071667
      dxz     :     0.008229
      dyz     :     0.040629
      dx2y2   :     0.002022
      dxy     :     0.003337
      f0      :     0.000386  f :     0.013552
      f+1     :     0.000964
      f-1     :     0.006116
      f+2     :     0.002629
      f-2     :     0.003001
      f+3     :     0.000331
      f-3     :     0.000124
  1 H s       :     0.552712  s :     0.552712
      pz      :     0.246622  p :     0.646807
      px      :     0.180897
      py      :     0.219288
      dz2     :     0.153296  d :     0.538853
      dxz     :     0.104424
      dyz     :     0.140630
      dx2y2   :     0.070276
      dxy     :     0.070227
  2 H s       :     0.597123  s :     0.597123
      pz      :     0.199295  p :     0.560056
      px      :     0.168043
      py      :     0.192718
      dz2     :     0.111190  d :     0.362944
      dxz     :     0.086000
      dyz     :     0.097454
      dx2y2   :     0.033904
      dxy     :     0.034396
  3 O s       :     2.957976  s :     2.957976
      pz      :     1.355048  p :     3.819924
      px      :     1.157447
      py      :     1.307429
      dz2     :     0.014138  d :     0.105534
      dxz     :     0.016239
      dyz     :     0.022678
      dx2y2   :     0.011007
      dxy     :     0.041472
      f0      :     0.001574  f :     0.019344
      f+1     :     0.002761
      f-1     :     0.002431
      f+2     :     0.000694
      f-2     :     0.004908
      f+3     :     0.001717
      f-3     :     0.005260
  4 H s       :     0.565792  s :     0.565792
      pz      :     0.159509  p :     0.495490
      px      :     0.158916
      py      :     0.177065
      dz2     :     0.063882  d :     0.345149
      dxz     :     0.060629
      dyz     :     0.056293
      dx2y2   :     0.094219
      dxy     :     0.070125
  5 H s       :     0.577281  s :     0.577281
      pz      :     0.148708  p :     0.524370
      px      :     0.203748
      py      :     0.171914
      dz2     :     0.030464  d :     0.354509
      dxz     :     0.093386
      dyz     :     0.024496
      dx2y2   :     0.105181
      dxy     :     0.100982


                      *****************************
                      * MAYER POPULATION ANALYSIS *
                      *****************************

  NA   - Mulliken gross atomic population
  ZA   - Total nuclear charge
  QA   - Mulliken gross atomic charge
  VA   - Mayer's total valence
  BVA  - Mayer's bonded valence
  FA   - Mayer's free valence

  ATOM       NA         ZA         QA         VA         BVA        FA
  0 O      8.5142     8.0000    -0.5142     1.9273     1.9273     0.0000
  1 H      0.7182     1.0000     0.2818     1.0025     1.0025     0.0000
  2 H      0.8032     1.0000     0.1968     1.0634     1.0634    -0.0000
  3 O      8.4267     8.0000    -0.4267     1.9899     1.9899     0.0000
  4 H      0.7569     1.0000     0.2431     1.0193     1.0193     0.0000
  5 H      0.7809     1.0000     0.2191     1.0324     1.0324    -0.0000

  Mayer bond orders larger than 0.100000
B(  0-O ,  1-H ) :   0.9416 B(  0-O ,  2-H ) :   1.0246 B(  3-O ,  4-H ) :   0.9891 
B(  3-O ,  5-H ) :   1.0050 

-------
TIMINGS
-------

Total SCF time: 0 days 0 hours 0 min 3 sec 

Total time                  ....       3.228 sec
Sum of individual times     ....       4.968 sec  (153.9%)

Fock matrix formation       ....       4.620 sec  (143.1%)
  Split-RI-J                ....       0.528 sec  ( 11.4% of F)
  Chain of spheres X        ....       2.075 sec  ( 44.9% of F)
Diagonalization             ....       0.011 sec  (  0.3%)
Density matrix formation    ....       0.004 sec  (  0.1%)
Population analysis         ....       0.009 sec  (  0.3%)
Initial guess               ....       0.008 sec  (  0.3%)
Orbital Transformation      ....       0.000 sec  (  0.0%)
Orbital Orthonormalization  ....       0.003 sec  (  0.1%)
DIIS solution               ....       0.005 sec  (  0.2%)
SOSCF solution              ....       0.047 sec  (  1.5%)

Maximum memory used throughout the entire SCF-calculation: 73.6 MB


           ************************************************************
           *        Program running with 16 parallel MPI-processes    *
           *              working on a common directory               *
           ************************************************************


--------------------------------------------------------------------------------
                             ORCA-MATRIX DRIVEN CI
--------------------------------------------------------------------------------


Wavefunction type
-----------------
Correlation treatment                      ...      CCSD     
Single excitations                         ... ON
Orbital optimization                       ... OFF
Calculation of Z vector                    ... OFF
Calculation of Brueckner orbitals          ... OFF
Perturbative triple excitations            ... ON
Calculation of F12 correction              ... OFF
Frozen core treatment                      ... chemical core (4 el)
Reference Wavefunction                     ... RHF
  Internal Orbitals:     2 ...    9 (  8 MO's/ 16 electrons)
  Virtual  Orbitals:    10 ...  183 (174 MO's              )
Number of AO's                             ...    184
Number of electrons                        ...     20
Number of correlated electrons             ...     16

Algorithmic settings
--------------------
Integral transformation                    ... All integrals via the RI transformation
K(C) Formation                             ... RI-DLPNO
   PNO-Integral Storage                    ... ON DISK
   PNO occupation number cut-off           ... 1.000e-07
   Singles PNO occupation number cut-off   ... 3.000e-09
   PNO Mulliken prescreening cut-off       ... 1.000e-03
   Domain cut-off (Mulliken population)    ... 1.000e-03
   PNO Normalization                       ...    1
Maximum number of iterations               ...        50
Convergence tolerance (max. residuum)      ... 1.000e-06
Level shift for amplitude update           ... 2.000e-01
Maximum number of DIIS vectors             ...         7
DIIS turned on at iteration                ...         0
Damping before turning on DIIS             ...     0.500
Damping after turning on DIIS              ...     0.000
Pair specific amplitude update             ... OFF
Natural orbital iterations                 ... OFF
Perturbative natural orbital generation    ... OFF
Printlevel                                 ... 3

Singles Fock matrix elements calculated using PNOs.

Memory handling:
----------------
Maximum memory for working arrays          ...   4000 MB
Data storage in matrix containers          ... UNCOMPRESSED
Data type for integral storage             ... DOUBLE
In-Core Storage of quantities:
   Amplitudes+Sigma Vector      ... NO
   J+K operators                ... NO
   DIIS vectors                 ... NO
   3-external integrals         ... NO
   4-external integrals         ... NO

Localization treatment:
-----------------------
Localization option                        ...    6
Localization threshhold                    ... -1.0e+00
Using relative localization threshhold     ... 1.0e-08
Neglect threshold for strong pairs         ... 1.000e-05 Eh
Prescreening threshold for very weak pairs ... 1.000e-07 Eh

Initializing the integral package          ... done
Localizing the valence orbitals
Localizing the valence orbitals
------------------------------------------------------------------------------
                           ORCA ORBITAL LOCALIZATION
------------------------------------------------------------------------------

Input orbitals are from                  ... frag51.gbw
Output orbitals are to                   ... frag51.loc
Max. number of iterations                ... 128
Localizations seeded randomly            ... off
Convergence tolerance                    ... 2.000e-07
Using relative localization threshhold   ... 1.000e-08
Threshold for strong local MOs           ... 9.500e-01
Threshold for bond MOs                   ... 8.500e-01
Operator                                 ... 0
Orbital range for localization           ... 2 to 9
Localization criterion                   ... FOSTER-BOYS (AUGMENTED HESSIAN)
Doing the dipole integrals     ... o.k.
Initial value of the localization sum :   150.167657
ITERATION   0 : L=  153.8431647362 DL=  3.68e+00 (AVERGE_DL)=    0.3623094235 
ITERATION   1 : L=  154.6638301803 DL=  8.21e-01 (AVERGE_DL)=    0.1712001173 
ITERATION   2 : L=  154.8512556974 DL=  1.87e-01 (AVERGE_DL)=    0.0818154537 
ITERATION   3 : L=  154.8622534572 DL=  1.10e-02 (AVERGE_DL)=    0.0198186058 
ITERATION   4 : L=  154.8635853811 DL=  1.33e-03 (AVERGE_DL)=    0.0068970073 
ITERATION   5 : L=  154.8637477472 DL=  1.62e-04 (AVERGE_DL)=    0.0024080674 
ITERATION   6 : L=  154.8637660581 DL=  1.83e-05 (AVERGE_DL)=    0.0008086781 
ITERATION   7 : L=  154.8637680862 DL=  2.03e-06 (AVERGE_DL)=    0.0002691309 
ITERATION   8 : L=  154.8637683078 DL=  2.22e-07 (AVERGE_DL)=    0.0000889770 
LOCALIZATION SUM CONVERGED

------------------------------------------------------
AUGMENTED HESSIAN OPTIMIZATION OF FOSTER-BOYS ORBITALS
------------------------------------------------------

Spin operator:           0
Orbital window:          2 to 9
Number of iterations:    128
Gradient tolerance:      2.000e-07
Number of pairs:         28
Davidson threshold:      2000
Diagonalization method:  LAPACK
Iter:    0   L: 154.8637683078   Grad. norm: 4.149917e-04
   *** Likely close to a maximum now. ***
       Augmented Hessian eigenvalues:  5.53e-08 -1.17e+00 -1.29e+00 -2.99e+00 ... 
Iter:    1   L: 154.8637683355   Grad. norm: 2.000769e-08
LOCALIZATION HAS CONVERGED.

Eigenvalues of the Hessian:
  0 -1.175e+00
  1 -1.294e+00
  2 -2.986e+00
  3 -3.215e+00
  4 -4.390e+00
  5 -4.753e+00
  6 -5.196e+00
  7 -5.338e+00
  8 -7.008e+00
  9 -7.294e+00
    ...


--------------------------------------------------------------------------------
                    LOCALIZED MOLECULAR ORBITAL COMPOSITIONS
--------------------------------------------------------------------------------

The Mulliken populations for each LMO on each atom are computed
The LMO`s will be ordered according to atom index and type
  (A) Strongly localized MO`s have populations of >=0.950 on one atom
  (B) Two center bond orbitals have populations of >=0.850 on two atoms
  (C) Other MO`s are considered to be `delocalized`

FOUND  -   4 strongly local MO`s
       -   4 two center bond MO`s
       -   0 significantly delocalized MO`s

Rather strongly localized orbitals:
MO   5:   3O  -   1.018459
MO   4:   3O  -   0.979803
MO   3:   0O  -   1.000088
MO   2:   0O  -   0.998300
Bond-like localized orbitals:
MO   9:   5H  -   0.388365  and   3O  -   0.607460
MO   8:   4H  -   0.373787  and   3O  -   0.622310
MO   7:   2H  -   0.392443  and   0O  -   0.601368
MO   6:   1H  -   0.347762  and   0O  -   0.662386
Localized MO's were stored in: frag51.loc

Localizing the core orbitals
------------------------------------------------------------------------------
                           ORCA ORBITAL LOCALIZATION
------------------------------------------------------------------------------

Input orbitals are from                  ... frag51.loc
Output orbitals are to                   ... frag51.loc
Max. number of iterations                ... 128
Localizations seeded randomly            ... off
Convergence tolerance                    ... 2.000e-07
Using relative localization threshhold   ... 1.000e-08
Threshold for strong local MOs           ... 9.500e-01
Threshold for bond MOs                   ... 8.500e-01
Operator                                 ... 0
Orbital range for localization           ... 0 to 1
Localization criterion                   ... FOSTER-BOYS (AUGMENTED HESSIAN)
Doing the dipole integrals     ... o.k.
Initial value of the localization sum :    38.139599
ITERATION   0 : L=   38.1395997768 DL=  2.98e-07 (AVERGE_DL)=    0.0005461579 
LOCALIZATION SUM CONVERGED

------------------------------------------------------
AUGMENTED HESSIAN OPTIMIZATION OF FOSTER-BOYS ORBITALS
------------------------------------------------------

Spin operator:           0
Orbital window:          0 to 1
Number of iterations:    128
Gradient tolerance:      2.000e-07
Number of pairs:         1
Davidson threshold:      2000
Diagonalization method:  LAPACK
Iter:    0   L: 38.1395997768   Grad. norm: 5.851304e-18
   *** Likely close to a maximum now. ***
       Augmented Hessian eigenvalues:  3.26e-37 -1.05e+02
Iter:    1   L: 38.1395997768   Grad. norm: 1.694066e-21
LOCALIZATION HAS CONVERGED.

Eigenvalues of the Hessian:
  0 -1.051e+02


--------------------------------------------------------------------------------
                    LOCALIZED MOLECULAR ORBITAL COMPOSITIONS
--------------------------------------------------------------------------------

The Mulliken populations for each LMO on each atom are computed
The LMO`s will be ordered according to atom index and type
  (A) Strongly localized MO`s have populations of >=0.950 on one atom
  (B) Two center bond orbitals have populations of >=0.850 on two atoms
  (C) Other MO`s are considered to be `delocalized`

FOUND  -   2 strongly local MO`s
       -   0 two center bond MO`s
       -   0 significantly delocalized MO`s

Rather strongly localized orbitals:
MO   1:   3O  -   0.998509
MO   0:   0O  -   0.999126
Localized MO's were stored in: frag51.loc

Warning: reference  - re-canonicalizations have been set to INT 1 VIRT 1
Warning: internal orbitals are localized - no re-canonicalization of internal orbitals
Warning: UsePNO is turned on - no re-canonicalization of internal and virtual orbitals

--------------------------
CLOSED-SHELL FOCK OPERATOR
--------------------------

Restoring SHARK [2] ... ok
Entering RIJCOSX section for the Fock matrix
Trying to retrieve the full J-matrix              ... done
Updating the Fock matrix                          ... done
Making the frozen core Coulomb matrix             ... SHARKdone
Retrieving the full K-matrix                      ... done
Calculating the frozen core K-matrix              ... done
Updating the Fock matrix                          ... done
Time needed for Fock operator              ...            0.548 sec
Reference energy                           ...   -152.121123257

--------------
DLPNO SETTINGS (2015 fully linear scaling implementation)
--------------

TCutMKN:           1.000e-03
TCutPAO:           1.000e-03
TCutPNO:           1.000e-07
TCutPNOSingles:    3.000e-09
TCutEN:            9.700e-01
TCutPAOExt:        1.000e-01
TCutPairs:         1.000e-05
TCutPre:           1.000e-07
TCutOSV:           1.000e-06
TCutDOij:          1.000e-05
TCutDO:            5.000e-03
TCutC:             1.000e-04
TCutCPAO:          1.000e-03
TCutCMO:           1.000e-03
TScaleDOMP2PreScr: 2.000e+00
TScaleMKNMP2PreScr:1.000e+01
TScalePNOMP2PreScr:1.000e+00
PAO overlap thresh 1.000e-08
Using PNOs for Singles Fock computation
Use new domains
Use fully linear algorithm
TCutTNO:           1.000e-09
TCutMP2Pairs:      1.000e-06
TCutDOStrong:      1.000e-02
TCutDOWeak:        2.000e-02
TCutMKNStrong:     1.000e-02
TCutMKNWeak:       1.000e-01
NTCutTNO:          1

--------------------------
Mulliken population of the LMOs            ... ok
Performing proximity check                 ... 
 found 1 problematic atoms
   => In all likelyhood your results will be entirely fine!
   => In case you don't want to trust it, decrease TCutMKN to below 0.00093144.
   => but note that this is probably not necessary but will increase execution time
Calculating differential overlap integrals ... ok

--------------------------
ELECTRON PAIR PRESCREENING
--------------------------

Dipole-based pair screening          .... used

   TCutDOij = 1.000000e-05
   TCutPre  = 1.000000e-07
   .... Finished loop over pairs
Total time spent in the prescreening                  ...     0.000 sec
Time for pair-prescreening                            ...     0.000 sec
Time for pairlist organization                        ...     0.000 sec
Number of pairs skipped by pre-screening              ... 0
sum of pair energies estimated for screened out pairs ...       0.000000000000 Eh
Thresholds for map construction and integral transformation for crude MP2:
   TCutMKN                    ...     1.0e-02
   TCutDO                     ...     1.0e-02
   TCutPairs                  ...     1.0e-05
   TCutPNO_CrudeMP2           ...     1.0e-07
   TCutPNOSingles_CrudeMP2    ...     3.0e-09
--------------------------------
LOCAL RI TRANSFORMATION (IAVPAO)
--------------------------------

Orbital window:       2 to 9
Number of PAOs:     184
Basis functions:    184 (64 shells)
Aux. functions:    1000 (248 shells)
Use SHARK:           on

Processing maps (0.0 sec)
Average map sizes:
   Aux shells -> MOs               8.0
   Aux shells -> PAOs            184.0
   MOs        -> AO shells        64.0
   PAOs       -> AO shells        64.0

Calculating integrals (0.1 sec, 11.242 MB)
Sorting integrals (0.0 sec, 11.231 MB)
Total time for the integral transformation: 0.2 sec
--------------------------------
INITIAL GUESS AND PNO GENERATION
--------------------------------

Populations of internal orbitals onto Fragments:
   2:      1.000    0.000  assigned to fragment   1
   3:      1.002    0.000  assigned to fragment   1
   4:      0.015    0.996  assigned to fragment   2
   5:      0.007    1.031  assigned to fragment   2
   6:      1.016    0.016  assigned to fragment   1
   7:      0.999    0.001  assigned to fragment   1
   8:      0.003    0.998  assigned to fragment   2
   9:      0.003    0.998  assigned to fragment   2

Summary assignment:
   4 orbitals assigned to fragment   1
   4 orbitals assigned to fragment   2

PNO truncation parameters                   .... 
    PAOOverlapThresh   =        1.000e-08

    TCutPairs          =        1.000e-05
    TCutPNO            =        1.000e-07
    TCutPNOSingles     =        3.000e-09
    TCutMP2Pairs       =        1.000e-06
    TCutMKN            =        1.000e-02
    TCutDO             =        1.000e-02

Pair selection                          .... not used
Type of local MP2 treatment                 .... semi-local MP2
Strategy for PNO selection                  .... occupation number selection
Pair density normalization                  .... MP2 norm
Spin component scaling                      .... not used

   .... Finished loop over pairs
Making pair pair interaction lists          ... 
Pair pair interaction statistics
Nr. of pairs:                        36
Nr. of Singles:                       8
Average (per pair domain)               (Total):
Atoms:                              6.0 (6)
PNOs:                               3.9
PAOs:                  184.0 (184)
Aux functions:                    528.9 (1000)
AuxAtoms:                           2.4 (6)
EXT1 basis functions:             184.0 (184)
Interacting Pairs:                  3.0 (36)
Interacting Pairs - Singles:        8.0 (8)
Average (per Single domain):
Atoms (Singles):                    6.0 (6)
PNOs (Singles):                    77.6
Basis functions (Singles):        184.0 (184)
Interacting Singles - Singles:      8.0 (8)
Interacting Singles - Pairs:       36.0 (36)
done

                       ===========================
                         36 OF   36 PAIRS ARE KEPT CCSD PAIRS
                          0 OF   36 PAIRS ARE KEPT MP2 PAIRS FOR (T)
                          0 OF   36 PAIRS ARE SKIPPED
                       ===========================

Total time spent in the initial guess                 ...     0.108 sec
Pair domain construction                              ...     0.000 sec
Time for calculating MP2 Guess in PAOs                ...     0.032 sec
     Time for Local metric generation                 ...     0.000 sec
     Time for Local Kij generation                    ...     0.012 sec
     Time for Local MP2 calculation                   ...     0.001 sec
     Time for LMP2 iterations                         ...     0.000 sec
          prep and other time                         ...     0.000 sec
          Time for sigma                              ...     0.000 sec (    0.000 sec in k-loop)
          Time for DIIS                               ...     0.000 sec
          Time for Update                             ...     0.000 sec
      Time for LMP2 I/O                               ...     0.000 sec
      Time for Initial PNO                            ...     0.000 sec
Time for generating PNOs                              ...     0.005 sec
Time for pairlist organization                        ...     0.000 sec
Time for pair-pair interaction organization           ...     0.002 sec
Size of the domain VM**-1/2 file                      ...         0 MB
SL-MP2 correlation energy (all non-screened pairs)    ...      -0.525800490730 Eh

Initial PNO correlation energy                        ...      -0.525622381235 Eh
sum of pair energies prescreened and skipped MP2 pairs...       0.000000000000 Eh
sum of pair energies of crude MP2 skipped pairs only  ...       0.000000000000 Eh
sum of MP2 pair energies for pairs that were not kept ...       0.000000000000 Eh
sum of PNO error estimates for the kept pairs         ...      -0.000178109495 Eh
                                                          --------------------
sum of all corrections                                         -0.000178109495
Initial total correlation energy                               -0.525800490730
Thresholds for map construction and integral transformation for fine MP2 and CCSD(T) calculation:
   TCutMKN   ...     1.0e-03
   TCutDO    ...     5.0e-03
   TCutPairs ...     1.0e-05
   TCutCMO   ...     1.0e-03
   TCutCPAO  ...     1.0e-03

Thresholds for map construction and integral transformation for strong Triples:
   TCutMKN   ...     1.0e-02
   TCutDO    ...     1.0e-02
   TCutCMO   ...     1.0e-03
   TCutCPAO  ...     1.0e-03

Thresholds for map construction and integral transformation for weak Triples:
   TCutMKN   ...     1.0e-01
   TCutDO    ...     2.0e-02
   TCutCMO   ...     1.0e-03
   TCutCPAO  ...     1.0e-03

--------------------------------
LOCAL RI TRANSFORMATION (IAVPAO)
--------------------------------

Orbital window:       2 to 9
Number of PAOs:     184
Basis functions:    184 (64 shells)
Aux. functions:    1000 (248 shells)
Use SHARK:           on

Processing maps (0.0 sec)
Average map sizes:
   Aux shells -> MOs               8.0
   Aux shells -> PAOs            184.0
   MOs        -> AO shells        64.0
   PAOs       -> AO shells        64.0

Calculating integrals (0.1 sec, 11.242 MB)
Sorting integrals (0.0 sec, 11.231 MB)
Total time for the integral transformation: 0.2 sec
--------------------------------
INITIAL GUESS AND PNO GENERATION
--------------------------------

Populations of internal orbitals onto Fragments:
   2:      1.000    0.000  assigned to fragment   1
   3:      1.002    0.000  assigned to fragment   1
   4:      0.015    0.996  assigned to fragment   2
   5:      0.007    1.031  assigned to fragment   2
   6:      1.016    0.016  assigned to fragment   1
   7:      0.999    0.001  assigned to fragment   1
   8:      0.003    0.998  assigned to fragment   2
   9:      0.003    0.998  assigned to fragment   2

Summary assignment:
   4 orbitals assigned to fragment   1
   4 orbitals assigned to fragment   2

PNO truncation parameters                   .... 
    ScaleTCutPNO       =        1.000e-02
    PAOOverlapThresh   =        1.000e-08

    TCutPairs          =        1.000e-05
    TCutPNO            =        1.000e-07
    TCutPNOSingles     =        3.000e-09
    TCutMP2Pairs       =        1.000e-06
    TCutMKN            =        1.000e-03
    TCutDO             =        5.000e-03

Pair selection                          .... not used
Type of local MP2 treatment                 .... full local PMP2
Strategy for PNO selection                  .... occupation number selection
Pair density normalization                  .... MP2 norm
Spin component scaling                      .... not used

PASS-1: Formation of initial guess LMP2 amplitudes
Initial amplitudes guess done. Entering LMP2 iteration loop:
   Max. no of iterations          ...  50
   Energy convergence tolerance   ...    1.0e-07
   Residual convergence tolerance ...    5.0e-07
   Fock matrix cutoff             ...    1.0e-05 Eh
   DIIS convergence acceleration parameters:
        Max # vectors in DIIS     ... 7
        Start iteration of DIIS   ... 0
        Levelshift                ... 2.000e-01
        Damping factor 1          ... 5.000e-01
        Damping factor 2          ... 1.000e+00
   L-MP2 PNO cut-off              ...   1.0e-09
   L-MP2 PNO cut-off (core)       ...   1.0e-11
504 of 504 terms in k-loop evaluated.

                           *** Turning on DIIS ***
LMP2-Iter=   0:  ELMP2= -0.536197999971  DE=   1.0e-02 RMAX=   4.8e-03
LMP2-Iter=   1:  ELMP2= -0.541602418237  DE=   5.4e-03 RMAX=   2.2e-03
LMP2-Iter=   2:  ELMP2= -0.542387849193  DE=   7.9e-04 RMAX=   4.0e-04
LMP2-Iter=   3:  ELMP2= -0.542490110617  DE=   1.0e-04 RMAX=   1.5e-04
LMP2-Iter=   4:  ELMP2= -0.542498422265  DE=   8.3e-06 RMAX=   1.8e-05
LMP2-Iter=   5:  ELMP2= -0.542498329146  DE=   9.3e-08 RMAX=   6.1e-06
LMP2-Iter=   6:  ELMP2= -0.542498280005  DE=   4.9e-08 RMAX=   6.0e-07
LMP2-Iter=   7:  ELMP2= -0.542498272313  DE=   7.7e-09 RMAX=   1.7e-07
LMP2-Iter=   8:  ELMP2= -0.542498275424  DE=   3.1e-09 RMAX=   2.8e-08 => CONVERGED
PASS-2: Formation of Pair natural orbitals
   .... Finished loop over pairs
Process  4:   (    6,     4):  99.867243674506 %
Process  4:   (    6,     5):  99.679377827650 %
Process  4:   (    6,     6):  99.993480196460 %
Process  4:   (    6):  99.999802785138 % (IJ)
Process  5:   (    7,     2):  99.994817229297 %
Process  5:   (    7,     3):  99.994811735277 %
Process  5:   (    7,     4):  99.542195889514 %
Process  6:   (    7,     5):  98.914502528799 %
Process  6:   (    7,     6):  99.994344296927 %
Process  6:   (    7,     7):  99.994747242356 %
Process  6:   (    7):  99.999906036259 % (IJ)
Process  7:   (    8,     2):  98.892206201511 %
Process  7:   (    8,     3):  98.629490103418 %
Process  7:   (    8,     4):  99.993750400746 %
Process  8:   (    8,     5):  99.994006415809 %
Process  8:   (    8,     6):  99.626096947445 %
Process  8:   (    8,     7):  98.367029740999 %
Process  9:   (    8,     8):  99.994657334202 %
Process  9:   (    9,     2):  98.704836725734 %
Process  9:   (    9,     3):  98.760462812915 %
Process  9:   (    8):  99.999852740769 % (IJ)
Process 10:   (    9,     4):  99.993012584791 %
Process 10:   (    9,     5):  99.994164100498 %
Process 10:   (    9,     6):  99.601360911853 %
Process 11:   (    9,     7):  98.502281402835 %
Process 11:   (    9,     8):  99.992322059281 %
Process 11:   (    9,     9):  99.994105134557 %
Process 11:   (    9):  99.999834217508 % (IJ)

  - Occupation number analysis for DOUBLES-pairs:

   Orbital Indices     % trace(D) 
  -----------------------------------
Process  0:   (    2,     2):  99.994573061546 %
Process  0:   (    3,     2):  99.995015129459 %
Process  0:   (    3,     3):  99.994627947847 %

  - Occupation number analysis for SINGLES-pairs:

   Orbital Index       % trace(D) 
  -----------------------------------
Process  0:   (    2):  99.999900991676 % (IJ)
Process  0:   (    3):  99.999901996761 % (IJ)
Process  1:   (    4,     2):  99.640184692056 %
Process  1:   (    4,     3):  99.629255838242 %
Process  1:   (    4,     4):  99.989973532627 %
Process  1:   (    4):  99.999718342759 % (IJ)
Process  2:   (    5,     2):  98.790621587850 %
Process  2:   (    5,     3):  98.964232827195 %
Process  2:   (    5,     4):  99.994551519166 %
Process  3:   (    5,     5):  99.992411216558 %
Process  3:   (    6,     2):  99.993849887364 %
Process  3:   (    6,     3):  99.993904936875 %
Process  3:   (    5):  99.999791917721 % (IJ)

 PNO Occupation Number Statistics: 
  | Av. % of trace(Dij) retained        ...  99.610791824282
  | sigma^2 in % of trace(Dij) retained ...   2.88e-01
  | Av. % of trace(Di) retained         ...  99.999838628574
  | sigma^2 in % of trace(Di) retained  ...   3.83e-09
 Distributions of % trace(Dij) recovered:
  |       >= 99.9  ...    20 ( 55.6 % of all pairs)
  |   [90.0, 99.0) ...     9 ( 25.0 % of all pairs)
  |   [99.0, 99.9) ...     7 ( 19.4 % of all pairs)
 Distributions of % trace(Di) recovered :
  |       >= 99.9  ...     8 (100.0 % of all I-pairs )

Making pair pair interaction lists          ... 
Pair pair interaction statistics
Nr. of pairs:                        36
Nr. of Singles:                       8
Average (per pair domain)               (Total):
Atoms:                              6.0 (6)
PNOs:                               4.0
PAOs:                  184.0 (184)
Aux functions:                    840.8 (1000)
AuxAtoms:                           4.9 (6)
EXT1 basis functions:             184.0 (184)
Interacting Pairs:                  3.0 (36)
Interacting Pairs - Singles:        8.0 (8)
Average (per Single domain):
Atoms (Singles):                    6.0 (6)
PNOs (Singles):                    81.5
Basis functions (Singles):        184.0 (184)
Interacting Singles - Singles:      8.0 (8)
Interacting Singles - Pairs:       36.0 (36)
done

                       ===========================
                         36 OF   36 PAIRS ARE KEPT
                       ===========================

Total time spent in the initial guess                 ...     0.601 sec
Pair domain construction                              ...     0.000 sec
Time for calculating MP2 Guess in PAOs                ...     0.063 sec
     Time for Local metric generation                 ...     0.000 sec
     Time for Local Kij generation                    ...     0.032 sec
     Time for Local MP2 calculation                   ...     0.001 sec
     Time for LMP2 iterations                         ...     0.341 sec
          prep and other time                         ...     0.002 sec
          Time for sigma                              ...     0.109 sec (    0.098 sec in k-loop)
          Time for DIIS                               ...     0.165 sec
          Time for Update                             ...     0.007 sec
      Time for LMP2 I/O                               ...     7.878 sec
      Time for Initial PNO                            ...     0.019 sec
Time for generating PNOs                              ...     0.002 sec
Time for pairlist organization                        ...     0.000 sec
Time for pair-pair interaction organization           ...     0.002 sec
Size of the domain VM**-1/2 file                      ...       232 MB
Size of the P2V_red file                              ...         2 MB
L-MP2 correlation energy (all non-screened pairs)     ...      -0.542498275424 Eh
L-MP2 PNO error correction                            ...      -0.000002665665 Eh
                                                          --------------------
Initial total L-MP2 energy (non-screened pairs)       ...      -0.542500941089 Eh

Initial PNO correlation energy                        ...      -0.542328580250 Eh
sum of pair energies estimated for screened out pairs ...       0.000000000000 Eh
sum of MP2 pair energies for pairs that were not kept ...       0.000000000000 Eh
sum of PNO error estimates for the kept pairs         ...      -0.000172360839 Eh
                                                          --------------------
sum of all corrections                                         -0.000172360839
Initial total correlation energy                               -0.542500941089
Thresholds for map construction and integral transformation for fine MP2 and CCSD(T) calculation:
   TCutMKN   ...     1.0e-03
   TCutDO    ...     5.0e-03
   TCutPairs ...     1.0e-05
   TCutCMO   ...     1.0e-03
   TCutCPAO  ...     1.0e-03

Time for aux screen maps:            0.001
Time for maps after fine MP2:            0.003
-----------------------------
LOCAL RI TRANSFORMATION (IJV)
-----------------------------

Orbital window:       2 to 9
Basis functions:    184 (64 shells)
Aux. functions:    1000 (248 shells)
Use SHARK:           on

Processing maps (0.0 sec)
Average map sizes:
   Aux shells -> MOs(i)            8.0
   Aux shells -> MOs(j)            8.0
   MOs        -> AO shells        64.0

Calculating integrals (0.1 sec, 0.500 MB)
Sorting integrals (0.0 sec, 0.488 MB)
Total time for the integral transformation: 0.1 sec
--------------------------------
LOCAL RI TRANSFORMATION (VABPAO)
--------------------------------

Number of PAOs:     184
Basis functions:    184 (64 shells)
Aux. functions:    1000 (248 shells)
Use SHARK:           on

Processing maps (0.0 sec)
Average map sizes:
   Aux shells -> PAOs            184.0
   PAOs       -> AO shells        64.0

Calculating integrals (0.2 sec, 258.312 MB)
Finished
Precomputing pair/pair interactions        ... 

-------------------------------------
Pair Pair Term precalculation with     
RI-(ij|mn) and (im|jn) transformation  
ON THE FLY                             
-------------------------------------

Max core memory to be used                    ...   4000 MB
Number of batches needed                      ...      1 
Average Memory used per batch                 ...      0 MB
Pair Pair terms per batch                     ...      0 
Total number of pairs                         ...     36 
Memory needed for all IJPairs                 ...      0 MB
   IBatch   1 (of   1)              ... done (    3.524 sec)
Total EXT                           ...           3.524 sec

Detailed timings: 
Reading/generating VMAT                    ...          0.010 sec
Reading 3-index integrals                  ...          0.120 sec
Sorting of data                            ...          0.956 sec
Get Pair1 ...          0.003 sec
Get Pair2 ...          0.025 sec
Get Pair3 ...          0.025 sec
Get Pair4 ...          0.000 sec
Get Pair5 ...          0.025 sec
Get Pair6 ...          0.024 sec
Orthogonalization of the 3-index integrals ...          0.127 sec
Multipl. of 3-index integrals              ...          1.360 sec
GetNewMat              ...          0.085 sec
Generating IJMN (orthog. + mult.)          ...          2.927 sec
Generating IJMN (orthog. + mult.) 1         ...          2.794 sec
Generating IJMN (orthog. + mult.) 2         ...          0.000 sec
Generating IJMN (orthog. + mult.) 3         ...          0.065 sec
Generating IJMN (orthog. + mult.) 4         ...          0.068 sec
Generating IMJN (orthog. + mult.)          ...          0.191 sec

done (    4.238 sec)
---------------------
RI-PNO TRANSFORMATION
---------------------

Total Number of PNOs                   ...  1663
Average number of PNOs per pair        ...    46
Maximal number of PNOs per pair        ...    69
   #pairs with  1 -  5 PNOs   :    0
   #pairs with  6 - 10 PNOs   :    0
   #pairs with 11 - 15 PNOs   :    2
   #pairs with 16 - 20 PNOs   :    6
   #pairs with 21 - 25 PNOs   :    1
   #pairs with 26 - 30 PNOs   :    1
   #pairs with 31 - 35 PNOs   :    3
   #pairs with 36 - 40 PNOs   :    2
   #pairs with 41 - 45 PNOs   :    0
   #pairs with 46 - 50 PNOs   :    1
   #pairs with 56 - 60 PNOs   :    8
   #pairs with 61 - 65 PNOs   :    6
   #pairs with 66 - 70 PNOs   :    6

Generation of (ij|ab)[P] integrals            ... on
Generation of (ia|bc)[P],(ja|bc)[P] integrals ... on
Storage of 3 and 4 external integrals         ... on
Generation of ALL (ka|bc)[P] integrals        ... on
Keep RI integrals in memory                   ... off
PNO Integral generation
Max core memory to be used                    ...   4000 MB
Number of batches needed                      ...      1 
Memory available for IJPairs                  ...   3940 MB
Memory needed per IJPair                      ...     46 MB
Total number of pairs                         ...     36 
Memory needed for all IJPairs                 ...   1640 MB

Ibatch:  1 (of  1)
Starting 2-4 index PNO integral generation ... done

Timings:
Total PNO integral transformation time     ...          2.890 sec
[...]
    2     2  :     -0.026269932 (  9.64)      -0.026269932      0.000000000      0.000000000       1      57
    3     3  :     -0.026269092 (  9.64)      -0.026269092      0.000000000      0.000000000       1      57
    7     6  :     -0.022542977 (  8.27)      -0.022542977      0.000000000      0.000000000       0      66

Overall summary of excitation mechanisms for this fragment:
  Total direct double excitations (i->a(ij))(j->b(ij))                      -0.272556854 (100.000 per cent)
  Total single charge-transfer    (i->a(ij))(j->b(X)) & (i->a(X))(j->b(ij))  0.000000000 (-0.000 per cent)
  Total double charge transfer    (i->a(X))(j->b(X))                         0.000000000 (-0.000 per cent)
                                                       -----------------------------
  Sum                                                  -0.272556854
  Consistency check                                    -0.272556854
 done 
 
FRAGMENT    2 =  -0.272304102453 Eh ...   

----------------------------------------------------------------------------------------------------------------------------------------
    i   j  type :        EP         (%)         Direct-            Single             Double         PNO in Mulliken                   
                                           Double Excitation     Charge-Transfer    Charge-Transfer  population range                   
                                                                                                      <0.7   >0.7                       
----------------------------------------------------------------------------------------------------------------------------------------
    8     8  :     -0.031865882 ( 11.70)      -0.031786116     -0.000075557     -0.000004208       0      57
    9     9  :     -0.031442822 ( 11.55)      -0.031363044     -0.000075706     -0.000004072       0      56
    5     4  :     -0.029505597 ( 10.84)      -0.027171050     -0.002190830     -0.000143718       0      69
    8     5  :     -0.026520653 (  9.74)      -0.026233484     -0.000283337     -0.000003832       2      64
    9     5  :     -0.026365064 (  9.68)      -0.026036880     -0.000321612     -0.000006573       2      64
    5     5  :     -0.026248059 (  9.64)      -0.025791481     -0.000435646     -0.000020932       2      57
    4     4  :     -0.026110984 (  9.59)      -0.023187576     -0.002280974     -0.000642435       3      57
    8     4  :     -0.025945336 (  9.53)      -0.024282048     -0.001602840     -0.000060448       4      63
    9     4  :     -0.025793812 (  9.47)      -0.024183026     -0.001550962     -0.000059825       2      64
    9     8  :     -0.022505893 (  8.26)      -0.022380585     -0.000124843     -0.000000464       1      64

Overall summary of excitation mechanisms for this fragment:
  Total direct double excitations (i->a(ij))(j->b(ij))                      -0.262415289 (96.368 per cent)
  Total single charge-transfer    (i->a(ij))(j->b(X)) & (i->a(X))(j->b(ij)) -0.008942306 ( 3.284 per cent)
  Total double charge transfer    (i->a(X))(j->b(X))                        -0.000946507 ( 0.348 per cent)
                                                       -----------------------------
  Sum                                                  -0.272304102
  Consistency check                                    -0.272304102
 done 
 
 

Decomposition of the inter-fragments strong pairs energies .. 

FRAGMENTS    2,1 =  -0.005891832120 Eh ...   

------------------------------------------------------------------------------------------------------------------------------------------------
    i   j  type :         EP        (%)         Dipole-            Cross              Charge        Charge          PNO in Mulliken            
                                                 Dipole           Excitation          Transfer      Transfer        population range            
                                                                                                                      <0.7  >0.7                
------------------------------------------------------------------------------------------------------------------------------------------------
    4     6  :     -0.002123135 ( 36.04)      -0.000950984     -0.000045063     -0.000204696     -0.000922392       2      48
    5     6  :     -0.000602195 ( 10.22)      -0.000397664      0.000001364     -0.000124326     -0.000081570       3      31
    4     3  :     -0.000506242 (  8.59)      -0.000154588     -0.000009171     -0.000022774     -0.000319709       5      31
    4     2  :     -0.000501484 (  8.51)      -0.000110403     -0.000008720     -0.000011878     -0.000370483       6      30
    9     6  :     -0.000440084 (  7.47)      -0.000253061      0.000000089     -0.000098328     -0.000088785       3      30
    8     6  :     -0.000437349 (  7.42)      -0.000265537      0.000001309     -0.000093977     -0.000079143       5      28
    4     7  :     -0.000392056 (  6.65)      -0.000099973     -0.000001431     -0.000006021     -0.000284632       3      27
    5     3  :     -0.000126086 (  2.14)      -0.000082995     -0.000000830     -0.000011834     -0.000030427       3      18
    5     2  :     -0.000117069 (  1.99)      -0.000090011     -0.000000316     -0.000011613     -0.000015129       6      13
    8     2  :     -0.000105781 (  1.80)      -0.000075019     -0.000000080     -0.000011268     -0.000019414       1      19
    5     7  :     -0.000101625 (  1.72)      -0.000081350      0.000000824     -0.000006654     -0.000014445       0      18
    9     3  :     -0.000098197 (  1.67)      -0.000063208     -0.000000158     -0.000010530     -0.000024302       2      18
    9     2  :     -0.000097642 (  1.66)      -0.000049470     -0.000001242     -0.000011550     -0.000035380       4      15
    8     3  :     -0.000096271 (  1.63)      -0.000060081     -0.000000049     -0.000013938     -0.000022202       4      15
    9     7  :     -0.000078023 (  1.32)      -0.000050836      0.000000197     -0.000004596     -0.000022788       1      14
    8     7  :     -0.000068594 (  1.16)      -0.000045877      0.000000144     -0.000005630     -0.000017231       0      14
----------------------------------------------------------------------------------------------------------------------------------------------------------
                   -0.005891832               -0.002831056     -0.000063132     -0.000649613     -0.002348033 
                                                 ( 48.05%)        (  1.07%)        ( 11.03%)        ( 39.85%)
----------------------------------------------------------------------------------------------------------------------------------------------------------

Overall summary of excitation mechanisms for this fragment pair:
  Total local dipole excitations    (i->a(i))(j->b(j)) -0.002831056 (48.051 per cent)
  Total Cross excitations           (i->a(j))(j->b(i)) -0.000063132 ( 1.072 per cent)
  Total Charge transfer excitations (i->a(i))(j->b(i)) -0.000649613 (11.026 per cent)
  Total Charge transfer excitations (i->a(j))(j->b(j)) -0.002348033 (39.852 per cent)
                                                       -----------------------------
  Sum                                                  -0.005891832
  Consistency check                                    -0.005891832
 done 
 
 
Summary Strong Pairs Energy Decomposition    
 
Intra fragment contributions: 
INTRA Fragment 1                       -0.272556854 
INTRA Fragment 2                       -0.262415289 

Charge transfer contributions: 
Charge Transfer 1 to 2                 -0.000649613 
Charge Transfer 2 to 1                 -0.012236847 

Dispersion contributions: 
Dispersion  2,1                        -0.002894187 

Singles contributions:                   
Singles energy                         -0.000007011 
 

------------------------------------------------- 
FINAL SUMMARY DLPNO-CCSD ENERGY DECOMPOSITION (Eh)
------------------------------------------------- 
 
Intrafragment REF. energy:                   
Intra fragment   1 (REF.)              -76.025752310     
Intra fragment   2 (REF.)              -76.027131975     

Interaction of fragments  2 and  1:  
Electrostatics (REF.)                  -0.058151623 
Exchange (REF.)                        -0.010087354 
Dispersion (strong pairs)              -0.002894187 
Dispersion (weak pairs)                -0.000088940 

Sum of non dispersive correlation terms: 
Non dispersion (strong pairs)          -0.547865613  
Non dispersion (weak pairs)            -0.000083420  

#Time for LED analysis ..       1.7 (sec)



--------------------------------------------------------------------------------
                                    TIMINGS
--------------------------------------------------------------------------------


Total execution time                   ...       63.952 sec

Localization of occupied MO's          ...        0.252 sec (  0.4%)
Fock Matrix Formation                  ...        0.548 sec (  0.9%)
Global overlap, Fock, MKN matrices     ...        0.164 sec (  0.3%)
Differential overlap integrals         ...        0.614 sec (  1.0%)
Organizing maps                        ...        0.008 sec (  0.0%)
RI 3-index integral generations        ...        0.634 sec (  1.0%)
RI-PNO integral transformation         ...        7.173 sec ( 11.2%)
Initial Guess                          ...        0.720 sec (  1.1%)
DIIS Solver                            ...        0.256 sec (  0.4%)
State Vector Update                    ...        0.004 sec (  0.0%)
Sigma-vector construction              ...       24.151 sec ( 37.8%)
  <D|H|D>(0-ext)                       ...        0.117 sec (  0.5% of sigma)
  <D|H|D>(2-ext Fock)                  ...        0.003 sec (  0.0% of sigma)
  <D|H|D>(2-ext)                       ...        0.429 sec (  1.8% of sigma)
  <D|H|D>(4-ext)                       ...        5.223 sec ( 21.6% of sigma)
  <D|H|D>(4-ext-corr)                  ...       14.957 sec ( 61.9% of sigma)
  CCSD doubles correction              ...        0.017 sec (  0.1% of sigma)
  <S|H|S>                              ...        0.123 sec (  0.5% of sigma)
  <S|H|D>(1-ext)                       ...        0.016 sec (  0.1% of sigma)
  <S|H|D>(3-ext)                       ...        0.077 sec (  0.3% of sigma)
  Fock-dressing                        ...        1.016 sec (  4.2% of sigma)
  Singles amplitudes                   ...        0.071 sec (  0.3% of sigma)
  (ik|jl)-dressing                     ...        0.095 sec (  0.4% of sigma)
  (ij|ab),(ia|jb)-dressing             ...        0.222 sec (  0.9% of sigma)
  Pair energies                        ...        0.002 sec (  0.0% of sigma)
Total Time for computing (T)           ...       27.747 sec ( 43.4% of ALL)
Local Energy Decomposition             ...        1.701 sec (  2.7% of ALL)


Maximum memory used throughout the entire MDCI-calculation: 960.7 MB

-------------------------   --------------------
FINAL SINGLE POINT ENERGY      -152.690118180651
-------------------------   --------------------


                            ***************************************
                            *     ORCA property calculations      *
                            ***************************************


  WARNING: The energy has been calculated at the MDCI level but the densities
           used in the property calculations are still SCF densities
           MDCI response densities have not been calculated 
           use %mdci Density linearized end
           or  %mdci Density unrelaxed end
           or  %mdci Density orbopt end

                                    ---------------------
                                    Active property flags
                                    ---------------------
   (+) Dipole Moment


------------------------------------------------------------------------------
                       ORCA ELECTRIC PROPERTIES CALCULATION
------------------------------------------------------------------------------

Dipole Moment Calculation                       ... on
Quadrupole Moment Calculation                   ... off
Polarizability Calculation                      ... off
GBWName                                         ... frag51.gbw
Electron density                                ... frag51.scfp
The origin for moment calculation is the CENTER OF MASS  = (-2.490551,  2.077485 -1.273077)

-------------
DIPOLE MOMENT
-------------
                                X             Y             Z
Electronic contribution:      0.01476       0.20957       0.19109
Nuclear contribution   :     -0.55734      -1.78533       0.31253
                        -----------------------------------------
Total Dipole Moment    :     -0.54257      -1.57576       0.50363
                        -----------------------------------------
Magnitude (a.u.)       :      1.74099
Magnitude (Debye)      :      4.42525



--------------------
Rotational spectrum 
--------------------
 
Rotational constants in cm-1:     7.800743     0.242733     0.240556 
Rotational constants in MHz : 233860.405972  7276.953383  7211.700839 

 Dipole components along the rotational axes: 
x,y,z [a.u.] :     1.423633    -0.558070    -0.832398 
x,y,z [Debye]:     3.618587    -1.418500    -2.115788 

 

--------------------------------
SUGGESTED CITATIONS FOR THIS RUN
--------------------------------

Below you find a list of papers that are relevant to this ORCA run
We neither can nor want to force you to cite these paper, but we appreciate if you do
You receive ORCA, which is the product of a lot of hard work by many enthusiastic individuals, for free
The *only* thing we kindly ask in return is that you cite our papers,
We deeply appreciate it, if you show your appreciation for ORCA but *not* just citing the generic ORCA reference.

Please note that relegating all ORCA citations to the supporting information does *not* help us.
SI sections are not index - citations you put there will not count into our citation statistics
But we need these citations in order to attract the funding ressources that allow us to do what we are doing

Therefore, please consider citing at least a few of the papers listed below, if you are a happy ORCA user

In addition to the list printed below, the program has created the file frag51.bibtex that contains the list in bibtex format
In this format, you can import it easily in all common literature databanks and citation aid programs


List of essential papers. We consider these as the minimum necessary citations

  1. Neese,F.
     Software update: the ORCA program system, version 5.0
     WIRES Comput. Molec. Sci., 2022 12(1)e1606
     doi.org/10.1002/wcms.1606

List of papers to cite with high priority. The work reported in these papers was absolutely
necessary for this run to complete.
Our perspective: the developers of density functionals and basis sets usually get cited in chemistry papers
Good! But without the algorithms to do something with them, the functionals or basis sets would not do anything.
Hence, in our opinion, the algorithm design and method developments papers are equally worthy of getting cited

  1. Neese,F.
     An improvement of the resolution of the identity approximation for the formation of the Coulomb matrix
     J. Comp. Chem., 2003 24(14)1740-1747
     doi.org/10.1002/jcc.10318
  2. Neese,F.; Wennmohs,F.; Hansen,A.; Becker,U.
     Efficient, approximate and parallel Hartree-Fock and hybrid DFT calculations. A 'chain-of-spheres' algorithm for the Hartree-Fock exchange
     Chem. Phys., 2009 356(1-3)98-109
     doi.org/10.1016/j.chemphys.2008.10.036
  3. Neese,F.; Hansen,A.; Liakos,D.G.
     Efficient and accurate approximations to the local coupled cluster singles doubles method using a truncated pair natural orbital basis
     J. Chem. Phys., 2009 131 064103
     doi.org/10.1063/1.3173827
  4. Neese,F.; Wennmohs,F.; Hansen,A.
     Efficient and accurate local approximations to coupled-electron pair approaches: An attempt to revive the pair natural orbital method
     J. Chem. Phys., 2009 130 114108
     doi.org/10.1063/1.3086717
  5. Riplinger,C.; Neese,F.
     An efficient and near linear scaling pair natural orbital based local coupled cluster method
     J. Chem. Phys., 2013 138(3)Art. No. 034106
     doi.org/10.1063/1.4773581
  6. Riplinger,C.; Sandhoefer,B.; Hansen,A.; Neese,F.
     Natural triple excitations in local coupled cluster calculations with pair natural orbitals
     J. Chem. Phys., 2013 139(13)Art. No. 134101
     doi.org/10.1063/1.4821834
  7. Riplinger,C.; Pinski,P.; Becker,U.; Valeev,E.F.; Neese,F.
     Sparse maps-A systematic infrastructure for reduced-scaling electronic structure methods. II. Linear scaling domain based pair natural orbital coupled cluster theory
     J. Chem. Phys., 2016 144 
     doi.org/10.1063/1.4939030
  8. Schneider,W.B.; Bistoni,G.; Sparta,M.; Saitow,M.; Riplinger,C.; Auer,A.A.; Neese,F.
     Decomposition of Intermolecular Interaction Energies within the Local Pair Natural Orbital Coupled Cluster Framework
     J. Theo. Comp. Chem., 2016 12 4778-4792
     doi.org/10.1021/acs.jctc.6b00523
  9. Bistoni,G.; Riplinger,C.; Minenkov,Y.; Cavallo,L.; Auer,A.A.; Neese,F.
     Treating Subvalence Correlation Effects in Domain Based Pair Natural Orbital Coupled Cluster Calculations: An Out-of-the-Box Approach
     J. Theo. Comp. Chem., 2017 13 3220-3227
     doi.org/10.1021/acs.jctc.7b00352
 10. Guo,Y.; Riplinger,C.; Becker,U.; Liakos,D.G.; Minenkov,Y.; Cavallo,L.; Neese,F.
     Communication: An improved linear scaling perturbative triples correction for the domain based local pair-natural orbital based singles and doubles coupled cluster method DLPNO-CCSD(T)
     J. Chem. Phys., 2018 148 5
     doi.org/10.1063/1.5011798
 11. Helmich-Paris,B.; de Souza,B.; Neese,F.; Izsk,R.
     An improved chain of spheres for exchange algorithm
     J. Chem. Phys., 2021 155 104109
     doi.org/doi: 10.1063/5.0058766.

List of suggested additional citations. These are papers that are important in the 'surrounding' of 
of this run, or papers that preceded the highly important papers. If you like your results we are grateful for a citation.

  1. Izsak,R.; Neese,F.
     An overlap fitted chain of spheres exchange method
     J. Chem. Phys., 2011 135 144105
     doi.org/10.1063/1.3646921
  2. Izsak,R.; Hansen,A.; Neese,F.
     The resolution of identity and chain of spheres approximations for the LPNO-CCSD singles Fock term
     Molec. Phys., 2012 110 2413-2417
     doi.org/10.1080/00268976.2012.687466
  3. Neese,F.
     The ORCA program system
     WIRES Comput. Molec. Sci., 2012 2(1)73-78
     doi.org/10.1002/wcms.81
  4. Izsak,R.; Neese,F.; Klopper,W.
     Robust fitting techniques in the chain of spheres approximation to the Fock exchange: The role of the complementary space
     J. Chem. Phys., 2013 139 
     doi.org/10.1063/1.4819264
  5. Neese,F.
     Software update: the ORCA program system, version 4.0
     WIRES Comput. Molec. Sci., 2018 8(1)1-6
     doi.org/10.1002/wcms.1327
  6. Neese,F.; Wennmohs,F.; Becker,U.; Riplinger,C.
     The ORCA quantum chemistry program package
     J. Chem. Phys., 2020 152 Art. No. L224108
     doi.org/10.1063/5.0004608
  7. Bistoni,G.
     Finding chemical concepts in the Hilbert space: Coupled cluster analyses of noncovalent interactions
     WIRES Comput. Molec. Sci., 2020 10(3)e1442
     doi.org/10.1002/wcms.1442

Timings for individual modules:

Sum of individual times         ...       69.212 sec (=   1.154 min)
GTO integral calculation        ...        1.020 sec (=   0.017 min)   1.5 %
SCF iterations                  ...        3.710 sec (=   0.062 min)   5.4 %
MDCI module                     ...       64.483 sec (=   1.075 min)  93.2 %
                             ****ORCA TERMINATED NORMALLY****
TOTAL RUN TIME: 0 days 0 hours 1 minutes 9 seconds 823 msec^