                                 *****************
                                 * O   R   C   A *
                                 *****************

                                            #,                                       
                                            ###                                      
                                            ####                                     
                                            #####                                    
                                            ######                                   
                                           ########,                                 
                                     ,,################,,,,,                         
                               ,,#################################,,                 
                          ,,##########################################,,             
                       ,#########################################, ''#####,          
                    ,#############################################,,   '####,        
                  ,##################################################,,,,####,       
                ,###########''''           ''''###############################       
              ,#####''   ,,,,##########,,,,          '''####'''          '####       
            ,##' ,,,,###########################,,,                        '##       
           ' ,,###''''                  '''############,,,                           
         ,,##''                                '''############,,,,        ,,,,,,###''
      ,#''                                            '''#######################'''  
     '                                                          ''''####''''         
             ,#######,   #######,   ,#######,      ##                                
            ,#'     '#,  ##    ##  ,#'     '#,    #''#        ######   ,####,        
            ##       ##  ##   ,#'  ##            #'  '#       #        #'  '#        
            ##       ##  #######   ##           ,######,      #####,   #    #        
            '#,     ,#'  ##    ##  '#,     ,#' ,#      #,         ##   #,  ,#        
             '#######'   ##     ##  '#######'  #'      '#     #####' # '####'        



                  #######################################################
                  #                        -***-                        #
                  #          Department of theory and spectroscopy      #
                  #    Directorship and core code : Frank Neese         #
                  #        Max Planck Institute fuer Kohlenforschung    #
                  #                Kaiser Wilhelm Platz 1               #
                  #                 D-45470 Muelheim/Ruhr               #
                  #                      Germany                        #
                  #                                                     #
                  #                  All rights reserved                #
                  #                        -***-                        #
                  #######################################################


                         Program Version 5.0  -  CURRENT   -
                                (GIT: $76ccee9ca$)
                ($2022-06-14 15:14:42 +0200 $)

                  !                     WARNING:                         !
                  !         This is a DEVELOPMENT version                !

                         (BUILD: $Mi 15. Jun 00:07:41 CEST 2022$)


 With contributions from (in alphabetic order):
   Daniel Aravena         : Magnetic Suceptibility
   Michael Atanasov       : Ab Initio Ligand Field Theory (pilot matlab implementation)
   Alexander A. Auer      : GIAO ZORA, VPT2 properties, NMR spectrum
   Ute Becker             : Parallelization
   Giovanni Bistoni       : ED, misc. LED, open-shell LED, HFLD
   Martin Brehm           : Molecular dynamics
   Dmytro Bykov           : SCF Hessian
   Vijay G. Chilkuri      : MRCI spin determinant printing, contributions to CSF-ICE
   Dipayan Datta          : RHF DLPNO-CCSD density
   Achintya Kumar Dutta   : EOM-CC, STEOM-CC
   Dmitry Ganyushin       : Spin-Orbit,Spin-Spin,Magnetic field MRCI
   Miquel Garcia          : C-PCM and meta-GGA Hessian, CC/C-PCM, Gaussian charge scheme
   Yang Guo               : DLPNO-NEVPT2, F12-NEVPT2, CIM, IAO-localization
   Andreas Hansen         : Spin unrestricted coupled pair/coupled cluster methods
   Benjamin Helmich-Paris : MC-RPA, TRAH-SCF, COSX integrals
   Lee Huntington         : MR-EOM, pCC
   Robert Izsak           : Overlap fitted RIJCOSX, COSX-SCS-MP3, EOM
   Marcus Kettner         : VPT2
   Christian Kollmar      : KDIIS, OOCD, Brueckner-CCSD(T), CCSD density, CASPT2, CASPT2-K, improved NEVPT2
   Simone Kossmann        : Meta GGA functionals, TD-DFT gradient, OOMP2, MP2 Hessian
   Martin Krupicka        : Initial AUTO-CI
   Lucas Lang             : DCDCAS
   Marvin Lechner         : AUTO-CI (C++ implementation), FIC-MRCC
   Dagmar Lenk            : GEPOL surface, SMD
   Dimitrios Liakos       : Extrapolation schemes; Compound Job, initial MDCI parallelization
   Dimitrios Manganas     : Further ROCIS development; embedding schemes
   Dimitrios Pantazis     : SARC Basis sets
   Anastasios Papadopoulos: AUTO-CI, single reference methods and gradients
   Taras Petrenko         : DFT Hessian,TD-DFT gradient, ASA, ECA, R-Raman, ABS, FL, XAS/XES, NRVS
   Peter Pinski           : DLPNO-MP2, DLPNO-MP2 Gradient
   Christoph Reimann      : Effective Core Potentials
   Marius Retegan         : Local ZFS, SOC
   Christoph Riplinger    : Optimizer, TS searches, QM/MM, DLPNO-CCSD(T), (RO)-DLPNO pert. Triples
   Tobias Risthaus        : Range-separated hybrids, TD-DFT gradient, RPA, STAB
   Michael Roemelt        : Original ROCIS implementation
   Masaaki Saitow         : Open-shell DLPNO-CCSD energy and density
   Barbara Sandhoefer     : DKH picture change effects
   Avijit Sen             : IP-ROCIS
   Kantharuban Sivalingam : CASSCF convergence, NEVPT2, FIC-MRCI
   Bernardo de Souza      : ESD, SOC TD-DFT
   Georgi Stoychev        : AutoAux, RI-MP2 NMR, DLPNO-MP2 response
   Willem Van den Heuvel  : Paramagnetic NMR
   Boris Wezisla          : Elementary symmetry handling
   Frank Wennmohs         : Technical directorship


 We gratefully acknowledge several colleagues who have allowed us to
 interface, adapt or use parts of their codes:
   Stefan Grimme, W. Hujo, H. Kruse, P. Pracht,  : VdW corrections, initial TS optimization,
                  C. Bannwarth, S. Ehlert          DFT functionals, gCP, sTDA/sTD-DF
   Ed Valeev, F. Pavosevic, A. Kumar             : LibInt (2-el integral package), F12 methods
   Garnet Chan, S. Sharma, J. Yang, R. Olivares  : DMRG
   Ulf Ekstrom                                   : XCFun DFT Library
   Mihaly Kallay                                 : mrcc  (arbitrary order and MRCC methods)
   Jiri Pittner, Ondrej Demel                    : Mk-CCSD
   Frank Weinhold                                : gennbo (NPA and NBO analysis)
   Christopher J. Cramer and Donald G. Truhlar   : smd solvation model
   Lars Goerigk                                  : TD-DFT with DH, B97 family of functionals
   V. Asgeirsson, H. Jonsson                     : NEB implementation
   FAccTs GmbH                                   : IRC, NEB, NEB-TS, DLPNO-Multilevel, CI-OPT
                                                   MM, QMMM, 2- and 3-layer-ONIOM, Crystal-QMMM,
                                                   LR-CPCM, SF, NACMEs, symmetry and pop. for TD-DFT,
                                                   nearIR, NL-DFT gradient (VV10), updates on ESD,
                                                   ML-optimized integration grids
   S Lehtola, MJT Oliveira, MAL Marques          : LibXC Library
   Liviu Ungur et al                             : ANISO software


 Your calculation uses the libint2 library for the computation of 2-el integrals
 For citations please refer to: http://libint.valeyev.net

 Your ORCA version has been built with support for libXC version: 5.2.2
 For citations please refer to: https://tddft.org/programs/libxc/

 This ORCA versions uses:
   CBLAS   interface :  Fast vector & matrix operations
   LAPACKE interface :  Fast linear algebra routines
   SCALAPACK package :  Parallel linear algebra routines
   Shared memory     :  Shared parallel matrices


================================================================================

----- Orbital basis set information -----
Your calculation utilizes the basis: aug-cc-pVTZ 
    H, B-Ne : Obtained from the ccRepo (grant-hill.group.shef.ac.uk/ccrepo) Feb. 2017
              R. A. Kendall, T. H. Dunning, Jr., R. J. Harrison, J. Chem. Phys. 96, 6796 (1992)
         He : Obtained from the ccRepo (grant-hill.group.shef.ac.uk/ccrepo) Feb. 2017
              D. E. Woon, T. H. Dunning, Jr., J. Chem. Phys. 100, 2975 (1994)
  Li-Be, Na : Obtained from the ccRepo (grant-hill.group.shef.ac.uk/ccrepo) Feb. 2017
              B. P. Prascher, D. E. Woon, K. A. Peterson, T. H. Dunning, Jr., A. K. Wilson, Theor. Chem. Acc. 128, 69 (2011)
         Mg : Obtained from the Peterson Research Group Website (tyr0.chem.wsu.edu/~kipeters) Feb. 2017
              B. P. Prascher, D. E. Woon, K. A. Peterson, T. H. Dunning, Jr., A. K. Wilson, Theor. Chem. Acc. 128, 69 (2011)
      Al-Ar : Obtained from the ccRepo (grant-hill.group.shef.ac.uk/ccrepo) Feb. 2017
              D. E. Woon, T. H. Dunning, Jr., J. Chem. Phys. 98, 1358 (1993)
      Sc-Zn : Obtained from the ccRepo (grant-hill.group.shef.ac.uk/ccrepo) Feb. 2017
              N. B. Balabanov, K. A. Peterson, J. Chem. Phys. 123, 064107 (2005)
              N. B. Balabanov, K. A. Peterson, J. Chem. Phys. 125, 074110 (2006)
      Ga-Kr : Obtained from the ccRepo (grant-hill.group.shef.ac.uk/ccrepo) Feb. 2017
              A. K. Wilson, D. E. Woon, K. A. Peterson, T. H. Dunning, Jr., J. Chem. Phys. 110, 7667 (1999)
     Ag, Au : Obtained from the Peterson Research Group Website (tyr0.chem.wsu.edu/~kipeters) Feb. 2017
              K. A. Peterson, C. Puzzarini, Theor. Chem. Acc. 114, 283 (2005)

----- AuxJ basis set information -----
----- AuxC basis set information -----
================================================================================
                                        WARNINGS
                       Please study these warnings very carefully!
================================================================================


WARNING: Post HF methods need fully converged wavefunctions
  ===> : Setting SCFConvForced true
         You can overwrite this default with %scf ConvForced false 


WARNING: MDCI localization with Augmented Hessian Foster-Boys
  ===> : Switching off randomization!

INFO   : the flag for use of the SHARK integral package has been found!

================================================================================
                                       INPUT FILE
================================================================================
NAME = frag41.inp
|  1> ! DLPNO-CCSD(T1) aug-cc-pVTZ DEFGRID3 RIJCOSX def2/J aug-cc-pVQZ/C verytightscf TightPNO LED
|  2> 
|  3> %pal nprocs 16 end
|  4> %maxcore 4000
|  5> %scf maxiter 999 end
|  6> %basis auxj "autoaux" auxc "autoaux" autoauxlmax true end
|  7> %mdci TCutPNO 1e-7 printlevel 3 end
|  8> 
|  9> * xyz 0 1
| 10> O(1)     3.364853284     1.252522284    -0.119963272
| 11> H(1)     2.731853532     1.891821037    -0.517486897
| 12> H(1)     4.212012919     1.443946099    -0.529713339
| 13> O(2)    -1.753042425     0.416462959     0.356105280
| 14> H(2)    -1.120933301    -0.183098298     0.812596940
| 15> H(2)    -2.593310567    -0.048459739     0.359102074
| 16> *
| 17> 
| 18>                          ****END OF INPUT****
================================================================================

                       ****************************
                       * Single Point Calculation *
                       ****************************

---------------------------------
CARTESIAN COORDINATES (ANGSTROEM)
---------------------------------
  O      3.364853    1.252522   -0.119963
  H      2.731854    1.891821   -0.517487
  H      4.212013    1.443946   -0.529713
  O     -1.753042    0.416463    0.356105
  H     -1.120933   -0.183098    0.812597
  H     -2.593311   -0.048460    0.359102

----------------------------
CARTESIAN COORDINATES (A.U.)
----------------------------
  NO LB      ZA    FRAG     MASS         X           Y           Z
   0 O     8.0000    1    15.999    6.358651    2.366924   -0.226698
   1 H     1.0000    1     1.008    5.162455    3.575024   -0.977909
   2 H     1.0000    1     1.008    7.959551    2.728663   -1.001013
   3 O     8.0000    2    15.999   -3.312770    0.787001    0.672941
   4 H     1.0000    2     1.008   -2.118257   -0.346006    1.535586
   5 H     1.0000    2     1.008   -4.900647   -0.091576    0.678605

----------------------------------------------
CARTESIAN COORDINATES OF FRAGMENTS (ANGSTROEM)
----------------------------------------------

 FRAGMENT 1 
  O     3.364853    1.252522   -0.119963
  H     2.731854    1.891821   -0.517487
  H     4.212013    1.443946   -0.529713

 FRAGMENT 2 
  O    -1.753042    0.416463    0.356105
  H    -1.120933   -0.183098    0.812597
  H    -2.593311   -0.048460    0.359102

--------------------------------
INTERNAL COORDINATES (ANGSTROEM)
--------------------------------
 O      0   0   0     0.000000000000     0.00000000     0.00000000
 H      1   0   0     0.983573390273     0.00000000     0.00000000
 H      1   2   0     0.960321634417   105.41002432     0.00000000
 O      2   1   3     4.801472325772   109.14045484   164.06384763
 H      4   2   1     0.983575254462    70.81952777     4.38634010
 H      4   2   1     0.960319033629   165.15584176   286.75230893

---------------------------
INTERNAL COORDINATES (A.U.)
---------------------------
 O      0   0   0     0.000000000000     0.00000000     0.00000000
 H      1   0   0     1.858684340228     0.00000000     0.00000000
 H      1   2   0     1.814744889527   105.41002432     0.00000000
 O      2   1   3     9.073467735310   109.14045484   164.06384763
 H      4   2   1     1.858687863034    70.81952777     4.38634010
 H      4   2   1     1.814739974751   165.15584176   286.75230893

---------------------
BASIS SET INFORMATION
---------------------
There are 2 groups of distinct atoms

 Group   1 Type O   : 19s6p3d2f contracted to 5s4p3d2f pattern {88111/3111/111/11}
 Group   2 Type H   : 6s3p2d contracted to 4s3p2d pattern {3111/111/11}

Atom   0O    basis set group =>   1
Atom   1H    basis set group =>   2
Atom   2H    basis set group =>   2
Atom   3O    basis set group =>   1
Atom   4H    basis set group =>   2
Atom   5H    basis set group =>   2
---------------------------------
AUXILIARY/J BASIS SET INFORMATION
---------------------------------
There are 2 groups of distinct atoms

 Group   1 Type O   : 16s14p13d7f5g3h2i contracted to 16s14p13d7f5g3h2i pattern {1111111111111111/11111111111111/1111111111111/1111111/11111/111/11}
 Group   2 Type H   : 14s6p5d4f3g contracted to 14s6p5d4f3g pattern {11111111111111/111111/11111/1111/111}

Atom   0O    basis set group =>   1
Atom   1H    basis set group =>   2
Atom   2H    basis set group =>   2
Atom   3O    basis set group =>   1
Atom   4H    basis set group =>   2
Atom   5H    basis set group =>   2
---------------------------------
AUXILIARY/C BASIS SET INFORMATION
---------------------------------
There are 2 groups of distinct atoms

 Group   1 Type O   : 16s14p13d7f5g3h2i contracted to 16s14p13d7f5g3h2i pattern {1111111111111111/11111111111111/1111111111111/1111111/11111/111/11}
 Group   2 Type H   : 14s6p5d4f3g contracted to 14s6p5d4f3g pattern {11111111111111/111111/11111/1111/111}

Atom   0O    basis set group =>   1
Atom   1H    basis set group =>   2
Atom   2H    basis set group =>   2
Atom   3O    basis set group =>   1
Atom   4H    basis set group =>   2
Atom   5H    basis set group =>   2

Checking for AutoStart:
The File: frag41.gbw exists
Trying to determine its content:
     ... Fine, the file contains calculation information
     ... Fine, the calculation information was read
     ... Fine, the file contains a basis set
     ... Fine, the basis set was read
     ... Fine, the file contains a geometry
     ... Fine, the geometry was read
     ... Fine, the file contains a set of orbitals
     ... Fine, the orbitals can be read
     => possible old guess file was deleted
     => GBW file was renamed to GES file
     => GES file is set as startup file
     => Guess is set to MORead
     ... now leaving AutoStart



           ************************************************************
           *        Program running with 16 parallel MPI-processes    *
           *              working on a common directory               *
           ************************************************************
------------------------------------------------------------------------------
                           ORCA GTO INTEGRAL CALCULATION
                           -- RI-GTO INTEGRALS CHOSEN --
------------------------------------------------------------------------------
------------------------------------------------------------------------------
                   ___                                                        
                  /   \      - P O W E R E D   B Y -                         
                 /     \                                                     
                 |  |  |   _    _      __       _____    __    __             
                 |  |  |  | |  | |    /  \     |  _  \  |  |  /  |          
                  \  \/   | |  | |   /    \    | | | |  |  | /  /          
                 / \  \   | |__| |  /  /\  \   | |_| |  |  |/  /          
                |  |  |   |  __  | /  /__\  \  |    /   |      \           
                |  |  |   | |  | | |   __   |  |    \   |  |\   \          
                \     /   | |  | | |  |  |  |  | |\  \  |  | \   \       
                 \___/    |_|  |_| |__|  |__|  |_| \__\ |__|  \__/        
                                                                              
                      - O R C A' S   B I G   F R I E N D -                    
                                      &                                       
                       - I N T E G R A L  F E E D E R -                       
                                                                              
 v1 FN, 2020, v2 2021                                                         
------------------------------------------------------------------------------


Reading SHARK input file frag41.SHARKINP.tmp ... ok
Calculating pre-screening integrals         ... done (  0.0 sec) Dimension = 76
Calculating pre-screening integrals (ORCA)  ... done (  0.0 sec) Dimension = 64
Organizing shell pair data                  ... done (  0.0 sec)
Shell pair information
Total number of shell pairs                 ...      2926
Shell pairs after pre-screening             ...      2448
Total number of primitive shell pairs       ...      3934
Primitive shell pairs kept                  ...      3084
          la=0 lb=0:    602 shell pairs
          la=1 lb=0:    642 shell pairs
          la=1 lb=1:    191 shell pairs
          la=2 lb=0:    440 shell pairs
          la=2 lb=1:    250 shell pairs
          la=2 lb=2:     92 shell pairs
          la=3 lb=0:    110 shell pairs
          la=3 lb=1:     66 shell pairs
          la=3 lb=2:     46 shell pairs
          la=3 lb=3:      9 shell pairs

Calculating one electron integrals          ... done (  0.0 sec)
Calculating RI/J V-Matrix + Cholesky decomp.... done (  0.4 sec)
Calculating RI/C V-Matrix + Cholesky decomp.... done (  0.2 sec)
Calculating Nuclear repulsion               ... done (  0.0 sec) ENN=     28.135846515071 Eh

SHARK setup successfully completed in   0.7 seconds

Maximum memory used throughout the entire GTOINT-calculation: 37.4 MB


           ************************************************************
           *        Program running with 16 parallel MPI-processes    *
           *              working on a common directory               *
           ************************************************************
-------------------------------------------------------------------------------
                                 ORCA SCF
-------------------------------------------------------------------------------

------------
SCF SETTINGS
------------
Hamiltonian:
 Ab initio Hamiltonian  Method          .... Hartree-Fock(GTOs)
 RI-approximation to the Coulomb term is turned on
   Number of AuxJ basis functions       .... 1000
   RIJ-COSX (HFX calculated with COS-X)).... on


General Settings:
 Integral files         IntName         .... frag41
 Hartree-Fock type      HFTyp           .... RHF
 Total Charge           Charge          ....    0
 Multiplicity           Mult            ....    1
 Number of Electrons    NEL             ....   20
 Basis Dimension        Dim             ....  184
 Nuclear Repulsion      ENuc            ....     28.1358465151 Eh

Convergence Acceleration:
 DIIS                   CNVDIIS         .... on
   Start iteration      DIISMaxIt       ....    12
   Startup error        DIISStart       ....  0.200000
   # of expansion vecs  DIISMaxEq       ....     5
   Bias factor          DIISBfac        ....   1.050
   Max. coefficient     DIISMaxC        ....  10.000
 Trust-Rad. Augm. Hess. CNVTRAH         .... auto
   Auto Start mean grad. ratio tolernc. ....  1.125000
   Auto Start start iteration           ....     1
   Auto Start num. interpolation iter.  ....    10
   Max. Number of Micro iterations      ....    24
   Max. Number of Macro iterations      .... Maxiter - #DIIS iter
   Max. Number of back steps            ....     5
   Number of Davidson start vectors     ....     2
   Converg. threshold I  (grad. norm)   ....   2.000e-06
   Converg. threshold II (energy diff.) ....   1.000e-09
   Grad. Scal. Fac. for Micro threshold ....   0.100
   Minimum threshold for Micro iter.    ....   1.000e-02
   NR start threshold (gradient norm)   ....   1.000e-04
   Initial trust radius                 ....   0.400
   Minimum AH scaling param. (alpha)    ....   1.000
   Maximum AH scaling param. (alpha)    .... 1000.000
   Inactive MOs                         .... canonicalized
   Orbital update algorithm             .... Taylor
   White noise on init. David. guess    .... on
   Maximum white noise                  ....   0.010
   Quad. conv. algorithm                .... NR
   Preconditioner                       .... approx. diagonal
 SOSCF                  CNVSOSCF        .... on
   Start iteration      SOSCFMaxIt      ....   150
   Startup grad/error   SOSCFStart      ....  0.003300
 Level Shifting         CNVShift        .... on
   Level shift para.    LevelShift      ....    0.2500
   Turn off err/grad.   ShiftErr        ....    0.0010
 Zerner damping         CNVZerner       .... off
 Static damping         CNVDamp         .... on
   Fraction old density DampFac         ....    0.7000
   Max. Damping (<1)    DampMax         ....    0.9800
   Min. Damping (>=0)   DampMin         ....    0.0000
   Turn off err/grad.   DampErr         ....    0.1000

SCF Procedure:
 Maximum # iterations   MaxIter         ....   999
 SCF integral mode      SCFMode         .... Direct
   Integral package                     .... SHARK and LIBINT hybrid scheme
 Reset frequency        DirectResetFreq ....    20
 Integral Threshold     Thresh          ....  1.000e-12 Eh
 Primitive CutOff       TCut            ....  1.000e-14 Eh

Convergence Tolerance:
 Convergence Check Mode ConvCheckMode   .... Total+1el-Energy
 Convergence forced     ConvForced      .... 1
 Energy Change          TolE            ....  1.000e-09 Eh
 1-El. energy change                    ....  1.000e-06 Eh
 Orbital Gradient       TolG            ....  2.000e-06
 Orbital Rotation angle TolX            ....  2.000e-06
 DIIS Error             TolErr          ....  1.000e-08


Diagonalization of the overlap matrix:
Smallest eigenvalue                        ... 3.640e-04
Time for diagonalization                   ...    0.007 sec
Threshold for overlap eigenvalues          ... 1.000e-08
Number of eigenvalues below threshold      ... 0
Time for construction of square roots      ...    0.004 sec
Total time needed                          ...    0.012 sec

---------------------
INITIAL GUESS: MOREAD
---------------------
Guess MOs are being read from file: frag41.ges
Input Geometry matches current geometry (good)
Input basis set matches current basis set (good)
MOs were renormalized
MOs were reorthogonalized (Cholesky)
                      ------------------
                      INITIAL GUESS DONE (   0.0 sec)
                      ------------------
--------------------
COSX GRID GENERATION
--------------------

GRIDX 1
-------
General Integration Accuracy     IntAcc      ... 4.020
Radial Grid Type                 RadialGrid  ... OptM3 with GC (2021)
Angular Grid (max. ang.)         AngularGrid ... 2 (Lebedev-110)
Angular grid pruning method      GridPruning ... 4 (adaptive)
Weight generation scheme         WeightScheme... Becke
Basis function cutoff            BFCut       ... 1.0000e-12
Integration weight cutoff        WCut        ... 1.0000e-14
Angular grids for H and He will be reduced by one unit
Partially contracted basis set               ... on
Rotationally invariant grid construction     ... off

Total number of grid points                  ...     8300
Total number of batches                      ...      133
Average number of points per batch           ...       62
Average number of grid points per atom       ...     1383
UseSFitting                                  ... on

GRIDX 2
-------
General Integration Accuracy     IntAcc      ... 4.338
Radial Grid Type                 RadialGrid  ... OptM3 with GC (2021)
Angular Grid (max. ang.)         AngularGrid ... 3 (Lebedev-194)
Angular grid pruning method      GridPruning ... 4 (adaptive)
Weight generation scheme         WeightScheme... Becke
Basis function cutoff            BFCut       ... 1.0000e-12
Integration weight cutoff        WCut        ... 1.0000e-14
Angular grids for H and He will be reduced by one unit
Partially contracted basis set               ... on
Rotationally invariant grid construction     ... off

Total number of grid points                  ...    19018
Total number of batches                      ...      301
Average number of points per batch           ...       63
Average number of grid points per atom       ...     3170
UseSFitting                                  ... on

GRIDX 3
-------
General Integration Accuracy     IntAcc      ... 4.871
Radial Grid Type                 RadialGrid  ... OptM3 with GC (2021)
Angular Grid (max. ang.)         AngularGrid ... 4 (Lebedev-302)
Angular grid pruning method      GridPruning ... 4 (adaptive)
Weight generation scheme         WeightScheme... Becke
Basis function cutoff            BFCut       ... 1.0000e-12
Integration weight cutoff        WCut        ... 1.0000e-14
Angular grids for H and He will be reduced by one unit
Partially contracted basis set               ... on
Rotationally invariant grid construction     ... off

Total number of grid points                  ...    37110
Total number of batches                      ...      583
Average number of points per batch           ...       63
Average number of grid points per atom       ...     6185
UseSFitting                                  ... on

Time for X-Grid setup             =    0.262 sec

 re-compute Schwartz prescreening matrix in partially contracted basis (1) ...done (   0.045 sec)
--------------
SCF ITERATIONS
--------------
ITER       Energy         Delta-E        Max-DP      RMS-DP      [F,P]     Damp
               ***  Starting incremental Fock matrix formation  ***
                      *** Initiating the SOSCF procedure ***
                      *** Re-Reading the Fockian *** 
                      *** Removing any level shift *** 
ITER       Energy         Delta-E        Max-DP      RMS-DP   
  0   -152.1187891904   0.000000000000 0.00184371  0.00002798
               *** Restarting incremental Fock matrix formation ***
  1   -152.1189584106  -0.000169220133 0.00180324  0.00002709
  2   -152.1189585160  -0.000000105389 0.00004158  0.00000126
  3   -152.1189583602   0.000000155771 0.00000790  0.00000019
  4   -152.1189583559   0.000000004331 0.00000149  0.00000005
  5   -152.1189583583  -0.000000002425 0.00000059  0.00000002
                 **** Energy Check signals convergence ****
              ***Rediagonalizing the Fockian in SOSCF/NRSCF***

               *****************************************************
               *                     SUCCESS                       *
               *           SCF CONVERGED AFTER   6 CYCLES          *
               *****************************************************

Old exchange energy                            =    -17.856416866 Eh
New exchange energy                            =    -17.856240952 Eh
Exchange energy change after final integration =      0.000175914 Eh
Total energy after final integration           =   -152.118782445 Eh
Final COS-X integration done in                =     0.361 sec

----------------
TOTAL SCF ENERGY
----------------

Total Energy       :         -152.11878244 Eh           -4139.36251 eV

Components:
Nuclear Repulsion  :           28.13584652 Eh             765.61531 eV
Electronic Energy  :         -180.25462896 Eh           -4904.97782 eV
One Electron Energy:         -265.68727054 Eh           -7229.71818 eV
Two Electron Energy:           85.43264158 Eh            2324.74036 eV
Max COSX asymmetry :            0.00000063 Eh               0.00002 eV

Virial components:
Potential Energy   :         -303.91648837 Eh           -8269.98809 eV
Kinetic Energy     :          151.79770593 Eh            4130.62558 eV
Virial Ratio       :            2.00211516


---------------
SCF CONVERGENCE
---------------

  Last Energy change         ...   -7.6454e-10  Tolerance :   1.0000e-09
  Last MAX-Density change    ...    1.7764e-15  Tolerance :   1.0000e-08
  Last RMS-Density change    ...    1.7133e-17  Tolerance :   1.0000e-09

             **** THE GBW FILE WAS UPDATED (frag41.gbw) ****
             **** DENSITY frag41.scfp WAS UPDATED ****
             **** ENERGY FILE WAS UPDATED (frag41.en.tmp) ****
             **** THE GBW FILE WAS UPDATED (frag41.gbw) ****
             **** DENSITY frag41.scfp WAS UPDATED ****
             **** ENERGY FILE WAS UPDATED (frag41.en.tmp) ****
----------------
ORBITAL ENERGIES
----------------

  NO   OCC          E(Eh)            E(eV) 
   0   2.0000     -20.567242      -559.6631 
   1   2.0000     -20.567209      -559.6622 
   2   2.0000      -1.343571       -36.5604 
   3   2.0000      -1.343489       -36.5582 
   4   2.0000      -0.709495       -19.3063 
   5   2.0000      -0.709298       -19.3010 
   6   2.0000      -0.578542       -15.7429 
   7   2.0000      -0.578520       -15.7423 
   8   2.0000      -0.506978       -13.7956 
   9   2.0000      -0.506827       -13.7915 
  10   0.0000       0.028454         0.7743 
  11   0.0000       0.036645         0.9972 
  12   0.0000       0.056231         1.5301 
  13   0.0000       0.057414         1.5623 
  14   0.0000       0.141087         3.8392 
  15   0.0000       0.149575         4.0701 
  16   0.0000       0.154454         4.2029 
  17   0.0000       0.158572         4.3150 
  18   0.0000       0.173826         4.7300 
  19   0.0000       0.181585         4.9412 
  20   0.0000       0.181741         4.9454 
  21   0.0000       0.203021         5.5245 
  22   0.0000       0.222946         6.0667 
  23   0.0000       0.235580         6.4105 
  24   0.0000       0.258344         7.0299 
  25   0.0000       0.275472         7.4960 
  26   0.0000       0.275491         7.4965 
  27   0.0000       0.299196         8.1415 
  28   0.0000       0.307837         8.3767 
  29   0.0000       0.311306         8.4711 
  30   0.0000       0.325642         8.8612 
  31   0.0000       0.328832         8.9480 
  32   0.0000       0.370810        10.0902 
  33   0.0000       0.403227        10.9724 
  34   0.0000       0.437010        11.8917 
  35   0.0000       0.447035        12.1644 
  36   0.0000       0.470844        12.8123 
  37   0.0000       0.471482        12.8297 
  38   0.0000       0.607774        16.5384 
  39   0.0000       0.622801        16.9473 
  40   0.0000       0.671470        18.2716 
  41   0.0000       0.678268        18.4566 
  42   0.0000       0.711857        19.3706 
  43   0.0000       0.723752        19.6943 
  44   0.0000       0.725599        19.7445 
  45   0.0000       0.730675        19.8827 
  46   0.0000       0.736544        20.0424 
  47   0.0000       0.738936        20.1075 
  48   0.0000       0.820174        22.3181 
  49   0.0000       0.846839        23.0437 
  50   0.0000       0.847317        23.0567 
  51   0.0000       0.852948        23.2099 
  52   0.0000       0.894725        24.3467 
  53   0.0000       0.902698        24.5637 
  54   0.0000       0.907675        24.6991 
  55   0.0000       0.915672        24.9167 
  56   0.0000       0.918183        24.9850 
  57   0.0000       0.920521        25.0486 
  58   0.0000       0.924997        25.1705 
  59   0.0000       0.940698        25.5977 
  60   0.0000       0.948506        25.8102 
  61   0.0000       0.962006        26.1775 
  62   0.0000       0.971642        26.4397 
  63   0.0000       0.985318        26.8119 
  64   0.0000       1.027235        27.9525 
  65   0.0000       1.027519        27.9602 
  66   0.0000       1.044186        28.4137 
  67   0.0000       1.051181        28.6041 
  68   0.0000       1.082647        29.4603 
  69   0.0000       1.089836        29.6560 
  70   0.0000       1.111212        30.2376 
  71   0.0000       1.126811        30.6621 
  72   0.0000       1.173463        31.9316 
  73   0.0000       1.178234        32.0614 
  74   0.0000       1.181121        32.1399 
  75   0.0000       1.184432        32.2300 
  76   0.0000       1.282066        34.8868 
  77   0.0000       1.284057        34.9410 
  78   0.0000       1.505981        40.9798 
  79   0.0000       1.516848        41.2755 
  80   0.0000       1.548541        42.1379 
  81   0.0000       1.580325        43.0028 
  82   0.0000       1.585959        43.1561 
  83   0.0000       1.587914        43.2093 
  84   0.0000       1.808033        49.1991 
  85   0.0000       1.812233        49.3134 
  86   0.0000       1.814585        49.3774 
  87   0.0000       1.827102        49.7180 
  88   0.0000       1.976862        53.7932 
  89   0.0000       1.979207        53.8569 
  90   0.0000       2.109407        57.3999 
  91   0.0000       2.110875        57.4398 
  92   0.0000       2.261139        61.5287 
  93   0.0000       2.263536        61.5940 
  94   0.0000       2.314198        62.9725 
  95   0.0000       2.317191        63.0540 
  96   0.0000       2.326309        63.3021 
  97   0.0000       2.362080        64.2755 
  98   0.0000       2.414031        65.6891 
  99   0.0000       2.417333        65.7790 
 100   0.0000       2.420161        65.8559 
 101   0.0000       2.420352        65.8611 
 102   0.0000       2.440531        66.4102 
 103   0.0000       2.452211        66.7281 
 104   0.0000       2.487497        67.6882 
 105   0.0000       2.494822        67.8876 
 106   0.0000       2.684029        73.0361 
 107   0.0000       2.698946        73.4421 
 108   0.0000       2.707856        73.6845 
 109   0.0000       2.708826        73.7109 
 110   0.0000       2.761813        75.1528 
 111   0.0000       2.764234        75.2186 
 112   0.0000       2.827605        76.9431 
 113   0.0000       2.847671        77.4891 
 114   0.0000       2.881513        78.4099 
 115   0.0000       2.882476        78.4362 
 116   0.0000       3.635228        98.9196 
 117   0.0000       3.637475        98.9807 
 118   0.0000       3.742057       101.8265 
 119   0.0000       3.752370       102.1072 
 120   0.0000       4.006385       109.0193 
 121   0.0000       4.006687       109.0275 
 122   0.0000       4.071934       110.8030 
 123   0.0000       4.079262       111.0024 
 124   0.0000       4.174915       113.6052 
 125   0.0000       4.177288       113.6698 
 126   0.0000       4.227351       115.0321 
 127   0.0000       4.236776       115.2885 
 128   0.0000       4.297876       116.9512 
 129   0.0000       4.300480       117.0220 
 130   0.0000       4.372202       118.9737 
 131   0.0000       4.378264       119.1386 
 132   0.0000       4.388024       119.4042 
 133   0.0000       4.394022       119.5674 
 134   0.0000       4.396074       119.6232 
 135   0.0000       4.407976       119.9471 
 136   0.0000       4.501142       122.4823 
 137   0.0000       4.507357       122.6514 
 138   0.0000       4.706267       128.0640 
 139   0.0000       4.713700       128.2663 
 140   0.0000       4.804373       130.7336 
 141   0.0000       4.804995       130.7506 
 142   0.0000       5.108545       139.0106 
 143   0.0000       5.110075       139.0522 
 144   0.0000       5.122247       139.3834 
 145   0.0000       5.123021       139.4045 
 146   0.0000       5.246165       142.7554 
 147   0.0000       5.250143       142.8637 
 148   0.0000       5.288331       143.9028 
 149   0.0000       5.291097       143.9781 
 150   0.0000       5.486041       149.2828 
 151   0.0000       5.486493       149.2951 
 152   0.0000       5.664984       154.1521 
 153   0.0000       5.677923       154.5042 
 154   0.0000       6.149598       167.3391 
 155   0.0000       6.158791       167.5892 
 156   0.0000       6.529050       177.6645 
 157   0.0000       6.530136       177.6940 
 158   0.0000       6.707445       182.5189 
 159   0.0000       6.708154       182.5382 
 160   0.0000       6.863987       186.7786 
 161   0.0000       6.865225       186.8123 
 162   0.0000       7.120379       193.7553 
 163   0.0000       7.121627       193.7893 
 164   0.0000       7.237175       196.9336 
 165   0.0000       7.238491       196.9693 
 166   0.0000       7.291924       198.4233 
 167   0.0000       7.293706       198.4718 
 168   0.0000       7.295536       198.5216 
 169   0.0000       7.301827       198.6928 
 170   0.0000       7.321639       199.2319 
 171   0.0000       7.321848       199.2376 
 172   0.0000       7.356979       200.1936 
 173   0.0000       7.359406       200.2596 
 174   0.0000       7.506074       204.2507 
 175   0.0000       7.507998       204.3030 
 176   0.0000       7.871284       214.1885 
 177   0.0000       7.873995       214.2623 
 178   0.0000       7.906442       215.1452 
 179   0.0000       7.909041       215.2159 
 180   0.0000       8.733372       237.6471 
 181   0.0000       8.734113       237.6673 
 182   0.0000      15.410688       419.3461 
 183   0.0000      15.421920       419.6518 

--------------------
FRAGMENT INFORMATION
--------------------
Fragment  1:    0   1   2 
Fragment  2:    3   4   5 


                    ********************************
                    * MULLIKEN POPULATION ANALYSIS *
                    ********************************

-------------------------
MULLIKEN FRAGMENT CHARGES
-------------------------
 Fragment   0 :   0.000008
 Fragment   1 :  -0.000008
Sum of fragment charges:   -0.0000000

---------------------------------
MULLIKEN FRAGMENT OVERLAP CHARGES
---------------------------------
                  0          1    
      0      11.121033  -0.000224
      1      -0.000224  11.119643

-----------------------
MULLIKEN ATOMIC CHARGES
-----------------------
   0 O :   -0.466447
   1 H :    0.244449
   2 H :    0.222006
   3 O :   -0.467016
   4 H :    0.242946
   5 H :    0.224062
Sum of atomic charges:   -0.0000000

--------------------------------
MULLIKEN REDUCED ORBITAL CHARGES
--------------------------------
  0 O s       :     3.873747  s :     3.873747
      pz      :     1.690623  p :     4.573163
      px      :     1.251043
      py      :     1.631497
      dz2     :     0.001347  d :     0.018181
      dxz     :     0.006059
      dyz     :     0.003732
      dx2y2   :     0.001808
      dxy     :     0.005235
      f0      :     0.000248  f :     0.001356
      f+1     :     0.000037
      f-1     :     0.000069
      f+2     :     0.000228
      f-2     :     0.000533
      f+3     :     0.000139
      f-3     :     0.000102
  1 H s       :     0.645519  s :     0.645519
      pz      :     0.035479  p :     0.092544
      px      :     0.026182
      py      :     0.030884
      dz2     :     0.003204  d :     0.017487
      dxz     :     0.003787
      dyz     :     0.001876
      dx2y2   :     0.007302
      dxy     :     0.001317
  2 H s       :     0.658303  s :     0.658303
      pz      :     0.039176  p :     0.100544
      px      :     0.022532
      py      :     0.038836
      dz2     :     0.003986  d :     0.019147
      dxz     :     0.005223
      dyz     :     0.000682
      dx2y2   :     0.001701
      dxy     :     0.007555
  3 O s       :     3.874618  s :     3.874618
      pz      :     1.765879  p :     4.572870
      px      :     1.258393
      py      :     1.548598
      dz2     :     0.001914  d :     0.018161
      dxz     :     0.001386
      dyz     :     0.003888
      dx2y2   :     0.001113
      dxy     :     0.009861
      f0      :     0.000308  f :     0.001367
      f+1     :     0.000294
      f-1     :     0.000147
      f+2     :     0.000043
      f-2     :     0.000383
      f+3     :     0.000028
      f-3     :     0.000164
  4 H s       :     0.646606  s :     0.646606
      pz      :     0.039632  p :     0.092886
      px      :     0.026511
      py      :     0.026743
      dz2     :     0.005049  d :     0.017562
      dxz     :     0.002706
      dyz     :     0.002058
      dx2y2   :     0.005312
      dxy     :     0.002436
  5 H s       :     0.657312  s :     0.657312
      pz      :     0.045866  p :     0.099705
      px      :     0.022389
      py      :     0.031450
      dz2     :     0.000208  d :     0.018922
      dxz     :     0.008057
      dyz     :     0.001791
      dx2y2   :     0.004696
      dxy     :     0.004169


                     *******************************
                     * LOEWDIN POPULATION ANALYSIS *
                     *******************************

------------------------
LOEWDIN FRAGMENT CHARGES
------------------------
 Fragment   0 :   0.000000
 Fragment   1 :  -0.000000

----------------------------
LOEWDIN FRAGMENT BOND ORDERS
----------------------------
                  0          1    
      0      18.226309   0.000994
      1       0.000994  18.226164

----------------------
LOEWDIN ATOMIC CHARGES
----------------------
   0 O :    0.998707
   1 H :   -0.474500
   2 H :   -0.524207
   3 O :    0.998642
   4 H :   -0.474514
   5 H :   -0.524128

-------------------------------
LOEWDIN REDUCED ORBITAL CHARGES
-------------------------------
  0 O s       :     3.019125  s :     3.019125
      pz      :     1.380004  p :     3.897198
      px      :     1.165140
      py      :     1.352054
      dz2     :     0.004883  d :     0.070438
      dxz     :     0.022368
      dyz     :     0.004490
      dx2y2   :     0.015904
      dxy     :     0.022794
      f0      :     0.002231  f :     0.014532
      f+1     :     0.000015
      f-1     :     0.000079
      f+2     :     0.003057
      f-2     :     0.004834
      f+3     :     0.002431
      f-3     :     0.001884
  1 H s       :     0.582539  s :     0.582539
      pz      :     0.171090  p :     0.531798
      px      :     0.162308
      py      :     0.198399
      dz2     :     0.057494  d :     0.360163
      dxz     :     0.059522
      dyz     :     0.061996
      dx2y2   :     0.107583
      dxy     :     0.073568
  2 H s       :     0.593171  s :     0.593171
      pz      :     0.184086  p :     0.561863
      px      :     0.214836
      py      :     0.162941
      dz2     :     0.062579  d :     0.369173
      dxz     :     0.102051
      dyz     :     0.022327
      dx2y2   :     0.077363
      dxy     :     0.104852
  3 O s       :     3.019159  s :     3.019159
      pz      :     1.391392  p :     3.897220
      px      :     1.168162
      py      :     1.337665
      dz2     :     0.007913  d :     0.070443
      dxz     :     0.009541
      dyz     :     0.006586
      dx2y2   :     0.010225
      dxy     :     0.036178
      f0      :     0.001218  f :     0.014536
      f+1     :     0.001910
      f-1     :     0.000761
      f+2     :     0.000087
      f-2     :     0.003817
      f+3     :     0.001509
      f-3     :     0.005233
  4 H s       :     0.582568  s :     0.582568
      pz      :     0.177117  p :     0.531799
      px      :     0.162648
      py      :     0.192033
      dz2     :     0.066040  d :     0.360147
      dxz     :     0.062122
      dyz     :     0.062277
      dx2y2   :     0.098236
      dxy     :     0.071473
  5 H s       :     0.593173  s :     0.593173
      pz      :     0.161969  p :     0.561816
      px      :     0.213791
      py      :     0.186057
      dz2     :     0.031434  d :     0.369138
      dxz     :     0.097862
      dyz     :     0.026254
      dx2y2   :     0.107077
      dxy     :     0.106511


                      *****************************
                      * MAYER POPULATION ANALYSIS *
                      *****************************

  NA   - Mulliken gross atomic population
  ZA   - Total nuclear charge
  QA   - Mulliken gross atomic charge
  VA   - Mayer's total valence
  BVA  - Mayer's bonded valence
  FA   - Mayer's free valence

  ATOM       NA         ZA         QA         VA         BVA        FA
  0 O      8.4664     8.0000    -0.4664     1.9779     1.9779    -0.0000
  1 H      0.7556     1.0000     0.2444     1.0145     1.0145    -0.0000
  2 H      0.7780     1.0000     0.2220     1.0350     1.0350    -0.0000
  3 O      8.4670     8.0000    -0.4670     1.9766     1.9766    -0.0000
  4 H      0.7571     1.0000     0.2429     1.0160     1.0160    -0.0000
  5 H      0.7759     1.0000     0.2241     1.0320     1.0320    -0.0000

  Mayer bond orders larger than 0.100000
B(  0-O ,  1-H ) :   0.9788 B(  0-O ,  2-H ) :   0.9994 B(  3-O ,  4-H ) :   0.9803 
B(  3-O ,  5-H ) :   0.9966 

-------
TIMINGS
-------

Total SCF time: 0 days 0 hours 0 min 2 sec 

Total time                  ....       2.194 sec
Sum of individual times     ....       3.184 sec  (145.1%)

Fock matrix formation       ....       2.854 sec  (130.1%)
  Split-RI-J                ....       0.383 sec  ( 13.4% of F)
  Chain of spheres X        ....       1.284 sec  ( 45.0% of F)
Diagonalization             ....       0.008 sec  (  0.3%)
Density matrix formation    ....       0.003 sec  (  0.1%)
Population analysis         ....       0.008 sec  (  0.4%)
Initial guess               ....       0.008 sec  (  0.4%)
Orbital Transformation      ....       0.000 sec  (  0.0%)
Orbital Orthonormalization  ....       0.003 sec  (  0.2%)
DIIS solution               ....       0.004 sec  (  0.2%)
SOSCF solution              ....       0.037 sec  (  1.7%)

Maximum memory used throughout the entire SCF-calculation: 73.1 MB


           ************************************************************
           *        Program running with 16 parallel MPI-processes    *
           *              working on a common directory               *
           ************************************************************


--------------------------------------------------------------------------------
                             ORCA-MATRIX DRIVEN CI
--------------------------------------------------------------------------------


Wavefunction type
-----------------
Correlation treatment                      ...      CCSD     
Single excitations                         ... ON
Orbital optimization                       ... OFF
Calculation of Z vector                    ... OFF
Calculation of Brueckner orbitals          ... OFF
Perturbative triple excitations            ... ON
Calculation of F12 correction              ... OFF
Frozen core treatment                      ... chemical core (4 el)
Reference Wavefunction                     ... RHF
  Internal Orbitals:     2 ...    9 (  8 MO's/ 16 electrons)
  Virtual  Orbitals:    10 ...  183 (174 MO's              )
Number of AO's                             ...    184
Number of electrons                        ...     20
Number of correlated electrons             ...     16

Algorithmic settings
--------------------
Integral transformation                    ... All integrals via the RI transformation
K(C) Formation                             ... RI-DLPNO
   PNO-Integral Storage                    ... ON DISK
   PNO occupation number cut-off           ... 1.000e-07
   Singles PNO occupation number cut-off   ... 3.000e-09
   PNO Mulliken prescreening cut-off       ... 1.000e-03
   Domain cut-off (Mulliken population)    ... 1.000e-03
   PNO Normalization                       ...    1
Maximum number of iterations               ...        50
Convergence tolerance (max. residuum)      ... 1.000e-06
Level shift for amplitude update           ... 2.000e-01
Maximum number of DIIS vectors             ...         7
DIIS turned on at iteration                ...         0
Damping before turning on DIIS             ...     0.500
Damping after turning on DIIS              ...     0.000
Pair specific amplitude update             ... OFF
Natural orbital iterations                 ... OFF
Perturbative natural orbital generation    ... OFF
Printlevel                                 ... 3

Singles Fock matrix elements calculated using PNOs.

Memory handling:
----------------
Maximum memory for working arrays          ...   4000 MB
Data storage in matrix containers          ... UNCOMPRESSED
Data type for integral storage             ... DOUBLE
In-Core Storage of quantities:
   Amplitudes+Sigma Vector      ... NO
   J+K operators                ... NO
   DIIS vectors                 ... NO
   3-external integrals         ... NO
   4-external integrals         ... NO

Localization treatment:
-----------------------
Localization option                        ...    6
Localization threshhold                    ... -1.0e+00
Using relative localization threshhold     ... 1.0e-08
Neglect threshold for strong pairs         ... 1.000e-05 Eh
Prescreening threshold for very weak pairs ... 1.000e-07 Eh

Initializing the integral package          ... done
Localizing the valence orbitals
Localizing the valence orbitals
------------------------------------------------------------------------------
                           ORCA ORBITAL LOCALIZATION
------------------------------------------------------------------------------

Input orbitals are from                  ... frag41.gbw
Output orbitals are to                   ... frag41.loc
Max. number of iterations                ... 128
Localizations seeded randomly            ... off
Convergence tolerance                    ... 2.000e-07
Using relative localization threshhold   ... 1.000e-08
Threshold for strong local MOs           ... 9.500e-01
Threshold for bond MOs                   ... 8.500e-01
Operator                                 ... 0
Orbital range for localization           ... 2 to 9
Localization criterion                   ... FOSTER-BOYS (AUGMENTED HESSIAN)
Doing the dipole integrals     ... o.k.
Initial value of the localization sum :   237.786245
ITERATION   0 : L=  241.2070438498 DL=  3.42e+00 (AVERGE_DL)=    0.3495302187 
ITERATION   1 : L=  241.9065344626 DL=  6.99e-01 (AVERGE_DL)=    0.1580563431 
ITERATION   2 : L=  242.1790977149 DL=  2.73e-01 (AVERGE_DL)=    0.0986630725 
ITERATION   3 : L=  242.1900355377 DL=  1.09e-02 (AVERGE_DL)=    0.0197645271 
ITERATION   4 : L=  242.1910021746 DL=  9.67e-04 (AVERGE_DL)=    0.0058756059 
ITERATION   5 : L=  242.1911077912 DL=  1.06e-04 (AVERGE_DL)=    0.0019421693 
ITERATION   6 : L=  242.1911179584 DL=  1.02e-05 (AVERGE_DL)=    0.0006025925 
ITERATION   7 : L=  242.1911189378 DL=  9.79e-07 (AVERGE_DL)=    0.0001870210 
LOCALIZATION SUM CONVERGED

------------------------------------------------------
AUGMENTED HESSIAN OPTIMIZATION OF FOSTER-BOYS ORBITALS
------------------------------------------------------

Spin operator:           0
Orbital window:          2 to 9
Number of iterations:    128
Gradient tolerance:      2.000e-07
Number of pairs:         28
Davidson threshold:      2000
Diagonalization method:  LAPACK
Iter:    0   L: 242.1911189378   Grad. norm: 7.532255e-04
   *** Likely close to a maximum now. ***
       Augmented Hessian eigenvalues:  2.04e-07 -1.28e+00 -1.28e+00 -3.21e+00 ... 
Iter:    1   L: 242.1911190396   Grad. norm: 7.322396e-08
LOCALIZATION HAS CONVERGED.

Eigenvalues of the Hessian:
  0 -1.279e+00
  1 -1.279e+00
  2 -3.208e+00
  3 -3.208e+00
  4 -4.695e+00
  5 -4.695e+00
  6 -5.336e+00
  7 -5.336e+00
  8 -7.201e+00
  9 -7.201e+00
    ...


--------------------------------------------------------------------------------
                    LOCALIZED MOLECULAR ORBITAL COMPOSITIONS
--------------------------------------------------------------------------------

The Mulliken populations for each LMO on each atom are computed
The LMO`s will be ordered according to atom index and type
  (A) Strongly localized MO`s have populations of >=0.950 on one atom
  (B) Two center bond orbitals have populations of >=0.850 on two atoms
  (C) Other MO`s are considered to be `delocalized`

FOUND  -   4 strongly local MO`s
       -   4 two center bond MO`s
       -   0 significantly delocalized MO`s

Rather strongly localized orbitals:
MO   5:   3O  -   1.001856
MO   4:   3O  -   1.001208
MO   3:   0O  -   1.001311
MO   2:   0O  -   1.001559
Bond-like localized orbitals:
MO   9:   5H  -   0.384408  and   3O  -   0.610869
MO   8:   4H  -   0.375787  and   3O  -   0.620311
MO   7:   2H  -   0.384897  and   0O  -   0.610511
MO   6:   1H  -   0.375191  and   0O  -   0.620503
Localized MO's were stored in: frag41.loc

Localizing the core orbitals
------------------------------------------------------------------------------
                           ORCA ORBITAL LOCALIZATION
------------------------------------------------------------------------------

Input orbitals are from                  ... frag41.loc
Output orbitals are to                   ... frag41.loc
Max. number of iterations                ... 128
Localizations seeded randomly            ... off
Convergence tolerance                    ... 2.000e-07
Using relative localization threshhold   ... 1.000e-08
Threshold for strong local MOs           ... 9.500e-01
Threshold for bond MOs                   ... 8.500e-01
Operator                                 ... 0
Orbital range for localization           ... 0 to 1
Localization criterion                   ... FOSTER-BOYS (AUGMENTED HESSIAN)
Doing the dipole integrals     ... o.k.
Initial value of the localization sum :    58.135000
ITERATION   0 : L=   58.1349999613 DL=  1.12e-09 (AVERGE_DL)=    0.0000334824 
LOCALIZATION SUM CONVERGED

------------------------------------------------------
AUGMENTED HESSIAN OPTIMIZATION OF FOSTER-BOYS ORBITALS
------------------------------------------------------

Spin operator:           0
Orbital window:          0 to 1
Number of iterations:    128
Gradient tolerance:      2.000e-07
Number of pairs:         1
Davidson threshold:      2000
Diagonalization method:  LAPACK
Iter:    0   L: 58.1349999613   Grad. norm: 4.675119e-18
   *** Likely close to a maximum now. ***
       Augmented Hessian eigenvalues:  5.64e-38 -3.87e+02
Iter:    1   L: 58.1349999613   Grad. norm: 2.646978e-23
LOCALIZATION HAS CONVERGED.

Eigenvalues of the Hessian:
  0 -3.874e+02


--------------------------------------------------------------------------------
                    LOCALIZED MOLECULAR ORBITAL COMPOSITIONS
--------------------------------------------------------------------------------

The Mulliken populations for each LMO on each atom are computed
The LMO`s will be ordered according to atom index and type
  (A) Strongly localized MO`s have populations of >=0.950 on one atom
  (B) Two center bond orbitals have populations of >=0.850 on two atoms
  (C) Other MO`s are considered to be `delocalized`

FOUND  -   2 strongly local MO`s
       -   0 two center bond MO`s
       -   0 significantly delocalized MO`s

Rather strongly localized orbitals:
MO   1:   3O  -   0.999311
MO   0:   0O  -   0.999382
Localized MO's were stored in: frag41.loc

Warning: reference  - re-canonicalizations have been set to INT 1 VIRT 1
Warning: internal orbitals are localized - no re-canonicalization of internal orbitals
Warning: UsePNO is turned on - no re-canonicalization of internal and virtual orbitals

--------------------------
CLOSED-SHELL FOCK OPERATOR
--------------------------

Restoring SHARK [2] ... ok
Entering RIJCOSX section for the Fock matrix
Trying to retrieve the full J-matrix              ... done
Updating the Fock matrix                          ... done
Making the frozen core Coulomb matrix             ... SHARKdone
Retrieving the full K-matrix                      ... done
Calculating the frozen core K-matrix              ... done
Updating the Fock matrix                          ... done
Time needed for Fock operator              ...            0.423 sec
Reference energy                           ...   -152.118782444

--------------
DLPNO SETTINGS (2015 fully linear scaling implementation)
--------------

TCutMKN:           1.000e-03
TCutPAO:           1.000e-03
TCutPNO:           1.000e-07
TCutPNOSingles:    3.000e-09
TCutEN:            9.700e-01
TCutPAOExt:        1.000e-01
TCutPairs:         1.000e-05
TCutPre:           1.000e-07
TCutOSV:           1.000e-06
TCutDOij:          1.000e-05
TCutDO:            5.000e-03
TCutC:             1.000e-04
TCutCPAO:          1.000e-03
TCutCMO:           1.000e-03
TScaleDOMP2PreScr: 2.000e+00
TScaleMKNMP2PreScr:1.000e+01
TScalePNOMP2PreScr:1.000e+00
PAO overlap thresh 1.000e-08
Using PNOs for Singles Fock computation
Use new domains
Use fully linear algorithm
TCutTNO:           1.000e-09
TCutMP2Pairs:      1.000e-06
TCutDOStrong:      1.000e-02
TCutDOWeak:        2.000e-02
TCutMKNStrong:     1.000e-02
TCutMKNWeak:       1.000e-01
NTCutTNO:          1

--------------------------
Mulliken population of the LMOs            ... ok
Performing proximity check                 ... 
 found 4 problematic atoms
   => In all likelyhood your results will be entirely fine!
   => In case you don't want to trust it, decrease TCutMKN to below 0.00002881.
   => but note that this is probably not necessary but will increase execution time
Calculating differential overlap integrals ... ok

--------------------------
ELECTRON PAIR PRESCREENING
--------------------------

Dipole-based pair screening          .... used

   TCutDOij = 1.000000e-05
   TCutPre  = 1.000000e-07
   .... Finished loop over pairs
Total time spent in the prescreening                  ...     0.000 sec
Time for pair-prescreening                            ...     0.000 sec
Time for pairlist organization                        ...     0.000 sec
Number of pairs skipped by pre-screening              ... 0
sum of pair energies estimated for screened out pairs ...       0.000000000000 Eh
Thresholds for map construction and integral transformation for crude MP2:
   TCutMKN                    ...     1.0e-02
   TCutDO                     ...     1.0e-02
   TCutPairs                  ...     1.0e-05
   TCutPNO_CrudeMP2           ...     1.0e-07
   TCutPNOSingles_CrudeMP2    ...     3.0e-09
--------------------------------
LOCAL RI TRANSFORMATION (IAVPAO)
--------------------------------

Orbital window:       2 to 9
Number of PAOs:     184
Basis functions:    184 (64 shells)
Aux. functions:    1000 (248 shells)
Use SHARK:           on

Processing maps (0.0 sec)
Average map sizes:
   Aux shells -> MOs               8.0
   Aux shells -> PAOs            184.0
   MOs        -> AO shells        60.5
   PAOs       -> AO shells        64.0

Calculating integrals (0.1 sec, 11.242 MB)
Sorting integrals (0.0 sec, 11.231 MB)
Total time for the integral transformation: 0.1 sec
--------------------------------
INITIAL GUESS AND PNO GENERATION
--------------------------------

Populations of internal orbitals onto Fragments:
   2:      1.003    0.000  assigned to fragment   1
   3:      1.003    0.000  assigned to fragment   1
   4:      0.000    1.002  assigned to fragment   2
   5:      0.000    1.004  assigned to fragment   2
   6:      1.000    0.000  assigned to fragment   1
   7:      1.000    0.000  assigned to fragment   1
   8:      0.000    1.000  assigned to fragment   2
   9:      0.000    1.000  assigned to fragment   2

Summary assignment:
   4 orbitals assigned to fragment   1
   4 orbitals assigned to fragment   2

PNO truncation parameters                   .... 
    PAOOverlapThresh   =        1.000e-08

    TCutPairs          =        1.000e-05
    TCutPNO            =        1.000e-07
    TCutPNOSingles     =        3.000e-09
    TCutMP2Pairs       =        1.000e-06
    TCutMKN            =        1.000e-02
    TCutDO             =        1.000e-02

Pair selection                          .... not used
Type of local MP2 treatment                 .... semi-local MP2
Strategy for PNO selection                  .... occupation number selection
Pair density normalization                  .... MP2 norm
Spin component scaling                      .... not used

   .... Finished loop over pairs
Making pair pair interaction lists          ... 
Pair pair interaction statistics
Nr. of pairs:                        20
Nr. of Singles:                       8
Average (per pair domain)               (Total):
Atoms:                              3.9 (6)
PNOs:                               5.9
PAOs:                  112.7 (184)
Aux functions:                    365.6 (1000)
AuxAtoms:                           1.8 (6)
EXT1 basis functions:             115.0 (184)
Interacting Pairs:                  2.0 (20)
Interacting Pairs - Singles:        7.9 (8)
Average (per Single domain):
Atoms (Singles):                    3.8 (6)
PNOs (Singles):                    73.2
Basis functions (Singles):        109.2 (184)
Interacting Singles - Singles:      7.8 (8)
Interacting Singles - Pairs:       19.8 (20)
done

                       ===========================
                         20 OF   36 PAIRS ARE KEPT CCSD PAIRS
                         16 OF   36 PAIRS ARE KEPT MP2 PAIRS FOR (T)
                          0 OF   36 PAIRS ARE SKIPPED
                       ===========================

Total time spent in the initial guess                 ...     0.085 sec
Pair domain construction                              ...     0.000 sec
Time for calculating MP2 Guess in PAOs                ...     0.016 sec
     Time for Local metric generation                 ...     0.000 sec
     Time for Local Kij generation                    ...     0.008 sec
     Time for Local MP2 calculation                   ...     0.000 sec
     Time for LMP2 iterations                         ...     0.000 sec
          prep and other time                         ...     0.000 sec
          Time for sigma                              ...     0.000 sec (    0.000 sec in k-loop)
          Time for DIIS                               ...     0.000 sec
          Time for Update                             ...     0.000 sec
      Time for LMP2 I/O                               ...     0.000 sec
      Time for Initial PNO                            ...     0.000 sec
Time for generating PNOs                              ...     0.002 sec
Time for pairlist organization                        ...     0.000 sec
Time for pair-pair interaction organization           ...     0.001 sec
Size of the domain VM**-1/2 file                      ...         0 MB
SL-MP2 correlation energy (all non-screened pairs)    ...      -0.522628942950 Eh

Initial PNO correlation energy                        ...      -0.522520081738 Eh
sum of pair energies prescreened and skipped MP2 pairs...       0.000000000000 Eh
sum of pair energies of crude MP2 skipped pairs only  ...       0.000000000000 Eh
sum of MP2 pair energies for pairs that were not kept ...      -0.000044341681 Eh
sum of PNO error estimates for the kept pairs         ...      -0.000064519531 Eh
                                                          --------------------
sum of all corrections                                         -0.000108861212
Initial total correlation energy                               -0.522628942950
Thresholds for map construction and integral transformation for fine MP2 and CCSD(T) calculation:
   TCutMKN   ...     1.0e-03
   TCutDO    ...     5.0e-03
   TCutPairs ...     1.0e-05
   TCutCMO   ...     1.0e-03
   TCutCPAO  ...     1.0e-03

Thresholds for map construction and integral transformation for strong Triples:
   TCutMKN   ...     1.0e-02
   TCutDO    ...     1.0e-02
   TCutCMO   ...     1.0e-03
   TCutCPAO  ...     1.0e-03

Thresholds for map construction and integral transformation for weak Triples:
   TCutMKN   ...     1.0e-01
   TCutDO    ...     2.0e-02
   TCutCMO   ...     1.0e-03
   TCutCPAO  ...     1.0e-03

--------------------------------
LOCAL RI TRANSFORMATION (IAVPAO)
--------------------------------

Orbital window:       2 to 9
Number of PAOs:     184
Basis functions:    184 (64 shells)
Aux. functions:    1000 (248 shells)
Use SHARK:           on

Processing maps (0.0 sec)
Average map sizes:
   Aux shells -> MOs               8.0
   Aux shells -> PAOs            184.0
   MOs        -> AO shells        60.5
   PAOs       -> AO shells        64.0

Calculating integrals (0.1 sec, 11.242 MB)
Sorting integrals (0.0 sec, 11.231 MB)
Total time for the integral transformation: 0.1 sec
--------------------------------
INITIAL GUESS AND PNO GENERATION
--------------------------------

Populations of internal orbitals onto Fragments:
   2:      1.003    0.000  assigned to fragment   1
   3:      1.003    0.000  assigned to fragment   1
   4:      0.000    1.002  assigned to fragment   2
   5:      0.000    1.004  assigned to fragment   2
   6:      1.000    0.000  assigned to fragment   1
   7:      1.000    0.000  assigned to fragment   1
   8:      0.000    1.000  assigned to fragment   2
   9:      0.000    1.000  assigned to fragment   2

Summary assignment:
   4 orbitals assigned to fragment   1
   4 orbitals assigned to fragment   2

PNO truncation parameters                   .... 
    ScaleTCutPNO       =        1.000e-02
    PAOOverlapThresh   =        1.000e-08

    TCutPairs          =        1.000e-05
    TCutPNO            =        1.000e-07
    TCutPNOSingles     =        3.000e-09
    TCutMP2Pairs       =        1.000e-06
    TCutMKN            =        1.000e-03
    TCutDO             =        5.000e-03

Pair selection                          .... not used
Type of local MP2 treatment                 .... full local PMP2
Strategy for PNO selection                  .... occupation number selection
Pair density normalization                  .... MP2 norm
Spin component scaling                      .... not used

PASS-1: Formation of initial guess LMP2 amplitudes
Initial amplitudes guess done. Entering LMP2 iteration loop:
   Max. no of iterations          ...  50
   Energy convergence tolerance   ...    1.0e-07
   Residual convergence tolerance ...    5.0e-07
   Fock matrix cutoff             ...    1.0e-05 Eh
   DIIS convergence acceleration parameters:
        Max # vectors in DIIS     ... 7
        Start iteration of DIIS   ... 0
        Levelshift                ... 2.000e-01
        Damping factor 1          ... 5.000e-01
        Damping factor 2          ... 1.000e+00
   L-MP2 PNO cut-off              ...   1.0e-09
   L-MP2 PNO cut-off (core)       ...   1.0e-11
468 of 504 terms in k-loop evaluated.

                           *** Turning on DIIS ***
LMP2-Iter=   0:  ELMP2= -0.532596124050  DE=   1.0e-02 RMAX=   5.0e-03
LMP2-Iter=   1:  ELMP2= -0.538006472189  DE=   5.4e-03 RMAX=   2.0e-03
LMP2-Iter=   2:  ELMP2= -0.538796279669  DE=   7.9e-04 RMAX=   3.7e-04
LMP2-Iter=   3:  ELMP2= -0.538900834455  DE=   1.0e-04 RMAX=   1.2e-04
LMP2-Iter=   4:  ELMP2= -0.538909852094  DE=   9.0e-06 RMAX=   1.8e-05
LMP2-Iter=   5:  ELMP2= -0.538909837793  DE=   1.4e-08 RMAX=   5.6e-06
LMP2-Iter=   6:  ELMP2= -0.538909796490  DE=   4.1e-08 RMAX=   6.7e-07
LMP2-Iter=   7:  ELMP2= -0.538909788691  DE=   7.8e-09 RMAX=   2.1e-07
LMP2-Iter=   8:  ELMP2= -0.538909792120  DE=   3.4e-09 RMAX=   2.0e-08 => CONVERGED
PASS-2: Formation of Pair natural orbitals
   .... Finished loop over pairs
Process  1:   (    4,     2):  99.892148776134 %
Process  1:   (    4,     3):  99.922461082868 %
Process  1:   (    4,     4):  99.994853714963 %
Process  1:   (    4):  99.999925578992 % (IJ)
Process  2:   (    5,     2): 100.000000000000 %
Process  2:   (    5,     3):  99.892242439568 %
Process  2:   (    5,     4):  99.996162475176 %
Process  3:   (    5,     5):  99.994181098596 %
Process  3:   (    6,     2):  99.995764565498 %
Process  3:   (    6,     3):  99.995766341718 %
Process  3:   (    5):  99.999934551000 % (IJ)
Process  4:   (    6,     4): 100.000000000000 %
Process  4:   (    6,     5): 100.000000000000 %
Process  4:   (    6,     6):  99.995658023036 %
Process  4:   (    6):  99.999920336162 % (IJ)
Process  5:   (    7,     2):  99.995153070161 %
Process  5:   (    7,     3):  99.995147811734 %
Process  5:   (    7,     4):  93.537453008665 %
Process  6:   (    7,     5):  92.299388937883 %
Process  6:   (    7,     6):  99.993863313369 %
Process  6:   (    7,     7):  99.995116152747 %
Process  6:   (    7):  99.999900563705 % (IJ)
Process  7:   (    8,     2): 100.000000000000 %
Process  7:   (    8,     3): 100.000000000000 %
Process  7:   (    8,     4):  99.995774602079 %
Process  8:   (    8,     5):  99.995764070033 %
Process  8:   (    8,     6): 100.000000000000 %
Process  8:   (    8,     7):  95.310491080066 %
Process  9:   (    8,     8):  99.995660019712 %
Process  9:   (    9,     2):  92.300912898626 %
Process  9:   (    9,     3):  93.536954202297 %
Process  9:   (    8):  99.999920403232 % (IJ)
Process 10:   (    9,     4):  99.995150733040 %
Process 10:   (    9,     5):  99.995154313475 %
Process 10:   (    9,     6):  95.310989144355 %
Process 11:   (    9,     7):  92.272660053668 %
Process 11:   (    9,     8):  99.993864093737 %
Process 11:   (    9,     9):  99.995117832224 %
Process 11:   (    9):  99.999900658632 % (IJ)

  - Occupation number analysis for DOUBLES-pairs:

   Orbital Indices     % trace(D) 
  -----------------------------------
Process  0:   (    2,     2):  99.994179316913 %
Process  0:   (    3,     2):  99.996160414935 %
Process  0:   (    3,     3):  99.994203265508 %

  - Occupation number analysis for SINGLES-pairs:

   Orbital Index       % trace(D) 
  -----------------------------------
Process  0:   (    2):  99.999934435200 % (IJ)
Process  0:   (    3):  99.999934839811 % (IJ)

 PNO Occupation Number Statistics: 
  | Av. % of trace(Dij) retained        ...  98.727177690355
  | sigma^2 in % of trace(Dij) retained ...   6.88e+00
  | Av. % of trace(Di) retained         ...  99.999921420842
  | sigma^2 in % of trace(Di) retained  ...   1.76e-10
 Distributions of % trace(Dij) recovered:
  |       >= 99.9  ...    27 ( 75.0 % of all pairs)
  |   [90.0, 99.0) ...     7 ( 19.4 % of all pairs)
  |   [99.0, 99.9) ...     2 (  5.6 % of all pairs)
 Distributions of % trace(Di) recovered :
  |       >= 99.9  ...     8 (100.0 % of all I-pairs )

Making pair pair interaction lists          ... 
Pair pair interaction statistics
Nr. of pairs:                        20
Nr. of Singles:                       8
Average (per pair domain)               (Total):
Atoms:                              5.0 (6)
PNOs:                               6.0
PAOs:                  161.0 (184)
Aux functions:                    494.4 (1000)
AuxAtoms:                           3.0 (6)
EXT1 basis functions:             161.0 (184)
Interacting Pairs:                  2.0 (20)
Interacting Pairs - Singles:        8.0 (8)
Average (per Single domain):
Atoms (Singles):                    5.0 (6)
PNOs (Singles):                    76.5
Basis functions (Singles):        161.0 (184)
Interacting Singles - Singles:      8.0 (8)
Interacting Singles - Pairs:       20.0 (20)
done

                       ===========================
                         20 OF   36 PAIRS ARE KEPT
                       ===========================

Total time spent in the initial guess                 ...     0.359 sec
Pair domain construction                              ...     0.000 sec
Time for calculating MP2 Guess in PAOs                ...     0.064 sec
     Time for Local metric generation                 ...     0.000 sec
     Time for Local Kij generation                    ...     0.045 sec
     Time for Local MP2 calculation                   ...     0.001 sec
     Time for LMP2 iterations                         ...     0.155 sec
          prep and other time                         ...     0.002 sec
          Time for sigma                              ...     0.057 sec (    0.048 sec in k-loop)
          Time for DIIS                               ...     0.075 sec
          Time for Update                             ...     0.005 sec
      Time for LMP2 I/O                               ...     6.752 sec
      Time for Initial PNO                            ...     0.014 sec
Time for generating PNOs                              ...     0.001 sec
Time for pairlist organization                        ...     0.000 sec
Time for pair-pair interaction organization           ...     0.001 sec
Size of the domain VM**-1/2 file                      ...       167 MB
Size of the P2V_red file                              ...         1 MB
L-MP2 correlation energy (all non-screened pairs)     ...      -0.538909792120 Eh
L-MP2 PNO error correction                            ...      -0.000000315064 Eh
                                                          --------------------
Initial total L-MP2 energy (non-screened pairs)       ...      -0.538910107183 Eh

Initial PNO correlation energy                        ...      -0.538793813930 Eh
sum of pair energies estimated for screened out pairs ...       0.000000000000 Eh
sum of MP2 pair energies for pairs that were not kept ...      -0.000049927185 Eh
sum of PNO error estimates for the kept pairs         ...      -0.000066366069 Eh
                                                          --------------------
sum of all corrections                                         -0.000116293253
Initial total correlation energy                               -0.538910107183
Thresholds for map construction and integral transformation for fine MP2 and CCSD(T) calculation:
   TCutMKN   ...     1.0e-03
   TCutDO    ...     5.0e-03
   TCutPairs ...     1.0e-05
   TCutCMO   ...     1.0e-03
   TCutCPAO  ...     1.0e-03

Time for aux screen maps:            0.001
Time for maps after fine MP2:            0.003
-----------------------------
LOCAL RI TRANSFORMATION (IJV)
-----------------------------

Orbital window:       2 to 9
Basis functions:    184 (64 shells)
Aux. functions:    1000 (248 shells)
Use SHARK:           on

Processing maps (0.0 sec)
Average map sizes:
   Aux shells -> MOs(i)            4.0
   Aux shells -> MOs(j)            8.0
   MOs        -> AO shells        60.5

Calculating integrals (0.1 sec, 0.256 MB)
Sorting integrals (0.0 sec, 0.244 MB)
Total time for the integral transformation: 0.1 sec
--------------------------------
LOCAL RI TRANSFORMATION (VABPAO)
--------------------------------

Number of PAOs:     184
Basis functions:    184 (64 shells)
Aux. functions:    1000 (248 shells)
Use SHARK:           on

Processing maps (0.0 sec)
Average map sizes:
   Aux shells -> PAOs            161.0
   PAOs       -> AO shells        64.0

Calculating integrals (0.2 sec, 197.773 MB)
Finished
Precomputing pair/pair interactions        ... 

-------------------------------------
Pair Pair Term precalculation with     
RI-(ij|mn) and (im|jn) transformation  
ON THE FLY                             
-------------------------------------

Max core memory to be used                    ...   4000 MB
Number of batches needed                      ...      1 
Average Memory used per batch                 ...      0 MB
Pair Pair terms per batch                     ...      0 
Total number of pairs                         ...     20 
Memory needed for all IJPairs                 ...      0 MB
   IBatch   1 (of   1)              ... done (    1.232 sec)
Total EXT                           ...           1.232 sec

Detailed timings: 
Reading/generating VMAT                    ...          0.001 sec
Reading 3-index integrals                  ...          0.073 sec
Sorting of data                            ...          0.264 sec
Get Pair1 ...          0.001 sec
Get Pair2 ...          0.005 sec
Get Pair3 ...          0.005 sec
Get Pair4 ...          0.000 sec
Get Pair5 ...          0.005 sec
Get Pair6 ...          0.004 sec
Orthogonalization of the 3-index integrals ...          0.019 sec
Multipl. of 3-index integrals              ...          0.503 sec
GetNewMat              ...          0.021 sec
Generating IJMN (orthog. + mult.)          ...          1.061 sec
Generating IJMN (orthog. + mult.) 1         ...          0.945 sec
Generating IJMN (orthog. + mult.) 2         ...          0.000 sec
Generating IJMN (orthog. + mult.) 3         ...          0.051 sec
Generating IJMN (orthog. + mult.) 4         ...          0.065 sec
Generating IMJN (orthog. + mult.)          ...          0.038 sec

done (    1.235 sec)
---------------------
RI-PNO TRANSFORMATION
---------------------

Total Number of PNOs                   ...  1216
Average number of PNOs per pair        ...    60
Maximal number of PNOs per pair        ...    64
   #pairs with  1 -  5 PNOs   :    0
   #pairs with  6 - 10 PNOs   :    0
   #pairs with 11 - 15 PNOs   :    0
   #pairs with 16 - 20 PNOs   :    0
   #pairs with 21 - 25 PNOs   :    0
   #pairs with 26 - 30 PNOs   :    0
   #pairs with 31 - 35 PNOs   :    0
   #pairs with 36 - 40 PNOs   :    0
   #pairs with 41 - 45 PNOs   :    0
   #pairs with 46 - 50 PNOs   :    0
   #pairs with 56 - 60 PNOs   :    8
   #pairs with 61 - 65 PNOs   :   12

Generation of (ij|ab)[P] integrals            ... on
Generation of (ia|bc)[P],(ja|bc)[P] integrals ... on
Storage of 3 and 4 external integrals         ... on
Generation of ALL (ka|bc)[P] integrals        ... on
Keep RI integrals in memory                   ... off
PNO Integral generation
Max core memory to be used                    ...   4000 MB
Number of batches needed                      ...      1 
Memory available for IJPairs                  ...   3941 MB
Memory needed per IJPair                      ...     21 MB
Total number of pairs                         ...     20 
Memory needed for all IJPairs                 ...    423 MB

Ibatch:  1 (of  1)
Starting 2-4 index PNO integral generation ... done

Timings:
Total PNO integral transformation time     ...          1.545 sec
Reading/generating VMAT                    ...          0.002 sec
Reading 3-index integrals                  ...          0.067 sec
Sorting of data (for reading)              ...          0.028 sec
      Sorting of data (for reading) 1      ...          0.000 sec
[...]
                                -0.282767489203        -0.282767272955  sum=       -0.565534762158


Interaction correlation for Fragments   2 and   1:
--------------------------------------------------
Inter strong pairs                0.000000000000 (    0.000 kcal/mol)
Inter triples                     0.000000000000 (    0.000 kcal/mol)
Inter weak pairs                 -0.000049927185 (   -0.031 kcal/mol)
                          ----------------------
Total interaction                -0.000049927185 (   -0.031 kcal/mol)



Sum of INTRA-fragment correlation energies  =        -0.565534762158
Sum of INTER-fragment correlation energies  =        -0.000049927185
                                              ---------------------
Total correlation energy                    =        -0.565584689343


--------------------------------------------
INTER- vs INTRA-FRAGMENT TOTAL ENERGIES (Eh)
--------------------------------------------

                                   Fragment   1            Fragment   2            
                         ----------------------  ----------------------  
Intra REF. energy              -76.059001818691       -76.059001604423  sum=     -152.118003423114
Intra Correlation energy        -0.282767489203        -0.282767272955  sum=       -0.565534762158
                         ----------------------  ----------------------  
                               -76.341769307894       -76.341768877379  sum=     -152.683538185272


Interaction of Fragments   2 and   1:
-------------------------------------
Interfragment reference          -0.000779021192 (   -0.489 kcal/mol)
Interfragment correlation        -0.000049927185 (   -0.031 kcal/mol)
                          ----------------------
Total interaction                -0.000828948377 (   -0.520 kcal/mol)


Sum of INTRA-fragment total energies        =      -152.683538185272
Sum of INTER-fragment total energies        =        -0.000828948377
                                              ---------------------
Total energy                                =      -152.684367133649


---------------------------------------------
DECOMPOSITION OF CCSD STRONG PAIRS INTO      
    DOUBLE EXCITATION TYPES (Eh)             
---------------------------------------------

Foster-Boys localization is used for localizing PNOs

Decomposition of the intra-fragment strong pairs energies .. 

FRAGMENT    1 =  -0.273977289921 Eh ...   

----------------------------------------------------------------------------------------------------------------------------------------
    i   j  type :        EP         (%)         Direct-            Single             Double         PNO in Mulliken                   
                                           Double Excitation     Charge-Transfer    Charge-Transfer  population range                   
                                                                                                      <0.7   >0.7                       
----------------------------------------------------------------------------------------------------------------------------------------
    6     6  :     -0.031989671 ( 11.68)      -0.031989671      0.000000000      0.000000000       0      57
    7     7  :     -0.031568776 ( 11.52)      -0.031568776      0.000000000      0.000000000       0      56
    3     2  :     -0.029687612 ( 10.84)      -0.029687612      0.000000000      0.000000000       0      63
    6     2  :     -0.026433847 (  9.65)      -0.026433847      0.000000000      0.000000000       0      64
    6     3  :     -0.026432672 (  9.65)      -0.026432672      0.000000000      0.000000000       0      64
    3     3  :     -0.026348993 (  9.62)      -0.026348993      0.000000000      0.000000000       0      57
    2     2  :     -0.026347722 (  9.62)      -0.026347722      0.000000000      0.000000000       0      57
    7     2  :     -0.026282228 (  9.59)      -0.026282228      0.000000000      0.000000000       0      63
    7     3  :     -0.026279155 (  9.59)      -0.026279155      0.000000000      0.000000000       0      63
    7     6  :     -0.022606614 (  8.25)      -0.022606614      0.000000000      0.000000000       0      64

Overall summary of excitation mechanisms for this fragment:
  Total direct double excitations (i->a(ij))(j->b(ij))                      -0.273977290 (100.000 per cent)
  Total single charge-transfer    (i->a(ij))(j->b(X)) & (i->a(X))(j->b(ij))  0.000000000 (-0.000 per cent)
  Total double charge transfer    (i->a(X))(j->b(X))                         0.000000000 (-0.000 per cent)
                                                       -----------------------------
  Sum                                                  -0.273977290
  Consistency check                                    -0.273977290
 done 
 
FRAGMENT    2 =  -0.273977336002 Eh ...   

----------------------------------------------------------------------------------------------------------------------------------------
    i   j  type :        EP         (%)         Direct-            Single             Double         PNO in Mulliken                   
                                           Double Excitation     Charge-Transfer    Charge-Transfer  population range                   
                                                                                                      <0.7   >0.7                       
----------------------------------------------------------------------------------------------------------------------------------------
    8     8  :     -0.031989654 ( 11.68)      -0.031989654      0.000000000      0.000000000       0      57
    9     9  :     -0.031568676 ( 11.52)      -0.031568676      0.000000000      0.000000000       0      56
    5     4  :     -0.029689006 ( 10.84)      -0.029689006      0.000000000      0.000000000       0      63
    8     5  :     -0.026433305 (  9.65)      -0.026433305      0.000000000      0.000000000       0      64
    8     4  :     -0.026433259 (  9.65)      -0.026433259      0.000000000      0.000000000       0      64
    4     4  :     -0.026349367 (  9.62)      -0.026349367      0.000000000      0.000000000       0      57
    5     5  :     -0.026348043 (  9.62)      -0.026348043      0.000000000      0.000000000       0      57
    9     4  :     -0.026280841 (  9.59)      -0.026280841      0.000000000      0.000000000       0      63
    9     5  :     -0.026280166 (  9.59)      -0.026280166      0.000000000      0.000000000       0      63
    9     8  :     -0.022605020 (  8.25)      -0.022605020      0.000000000      0.000000000       0      64

Overall summary of excitation mechanisms for this fragment:
  Total direct double excitations (i->a(ij))(j->b(ij))                      -0.273977336 (100.000 per cent)
  Total single charge-transfer    (i->a(ij))(j->b(X)) & (i->a(X))(j->b(ij))  0.000000000 (-0.000 per cent)
  Total double charge transfer    (i->a(X))(j->b(X))                         0.000000000 (-0.000 per cent)
                                                       -----------------------------
  Sum                                                  -0.273977336
  Consistency check                                    -0.273977336
 done 
 
 

Decomposition of the inter-fragments strong pairs energies .. 
FRAGMENTS    2,1 =   0.000000000000 Eh ...   

 
Summary Strong Pairs Energy Decomposition    
 
Intra fragment contributions: 
INTRA Fragment 1                       -0.273977290 
INTRA Fragment 2                       -0.273977336 

Charge transfer contributions: 
Charge Transfer 1 to 2                  0.000000000 
Charge Transfer 2 to 1                  0.000000000 

Dispersion contributions: 
Dispersion  2,1                         0.000000000 

Singles contributions:                   
Singles energy                         -0.000003401 
 

------------------------------------------------- 
FINAL SUMMARY DLPNO-CCSD ENERGY DECOMPOSITION (Eh)
------------------------------------------------- 
 
Intrafragment REF. energy:                   
Intra fragment   1 (REF.)              -76.059001819     
Intra fragment   2 (REF.)              -76.059001604     

Interaction of fragments  2 and  1:  
Electrostatics (REF.)                  -0.000778343 
Exchange (REF.)                        -0.000000678 
Dispersion (strong pairs)               0.000000000 
Dispersion (weak pairs)                -0.000049927 

Sum of non dispersive correlation terms: 
Non dispersion (strong pairs)          -0.547958027  
Non dispersion (weak pairs)            -0.000066366  

#Time for LED analysis ..       1.7 (sec)



--------------------------------------------------------------------------------
                                    TIMINGS
--------------------------------------------------------------------------------


Total execution time                   ...       32.163 sec

Localization of occupied MO's          ...        0.252 sec (  0.8%)
Fock Matrix Formation                  ...        0.423 sec (  1.3%)
Global overlap, Fock, MKN matrices     ...        0.178 sec (  0.6%)
Differential overlap integrals         ...        0.618 sec (  1.9%)
Organizing maps                        ...        0.007 sec (  0.0%)
RI 3-index integral generations        ...        0.577 sec (  1.8%)
RI-PNO integral transformation         ...        2.808 sec (  8.7%)
Initial Guess                          ...        0.450 sec (  1.4%)
DIIS Solver                            ...        0.139 sec (  0.4%)
State Vector Update                    ...        0.003 sec (  0.0%)
Sigma-vector construction              ...       19.337 sec ( 60.1%)
  <D|H|D>(0-ext)                       ...        0.053 sec (  0.3% of sigma)
  <D|H|D>(2-ext Fock)                  ...        0.002 sec (  0.0% of sigma)
  <D|H|D>(2-ext)                       ...        0.186 sec (  1.0% of sigma)
  <D|H|D>(4-ext)                       ...        3.579 sec ( 18.5% of sigma)
  <D|H|D>(4-ext-corr)                  ...       10.880 sec ( 56.3% of sigma)
  CCSD doubles correction              ...        0.007 sec (  0.0% of sigma)
  <S|H|S>                              ...        0.113 sec (  0.6% of sigma)
  <S|H|D>(1-ext)                       ...        0.009 sec (  0.0% of sigma)
  <S|H|D>(3-ext)                       ...        0.060 sec (  0.3% of sigma)
  Fock-dressing                        ...        0.635 sec (  3.3% of sigma)
  Singles amplitudes                   ...        0.044 sec (  0.2% of sigma)
  (ik|jl)-dressing                     ...        0.058 sec (  0.3% of sigma)
  (ij|ab),(ia|jb)-dressing             ...        0.237 sec (  1.2% of sigma)
  Pair energies                        ...        0.002 sec (  0.0% of sigma)
Total Time for computing (T)           ...        5.607 sec ( 17.4% of ALL)
Local Energy Decomposition             ...        1.699 sec (  5.3% of ALL)


Maximum memory used throughout the entire MDCI-calculation: 366.0 MB

-------------------------   --------------------
FINAL SINGLE POINT ENERGY      -152.684367133607
-------------------------   --------------------


                            ***************************************
                            *     ORCA property calculations      *
                            ***************************************


  WARNING: The energy has been calculated at the MDCI level but the densities
           used in the property calculations are still SCF densities
           MDCI response densities have not been calculated 
           use %mdci Density linearized end
           or  %mdci Density unrelaxed end
           or  %mdci Density orbopt end

                                    ---------------------
                                    Active property flags
                                    ---------------------
   (+) Dipole Moment


------------------------------------------------------------------------------
                       ORCA ELECTRIC PROPERTIES CALCULATION
------------------------------------------------------------------------------

Dipole Moment Calculation                       ... on
Quadrupole Moment Calculation                   ... off
Polarizability Calculation                      ... off
GBWName                                         ... frag41.gbw
Electron density                                ... frag41.scfp
The origin for moment calculation is the CENTER OF MASS  = ( 1.523258,  1.564604  0.204735)

-------------
DIPOLE MOMENT
-------------
                                X             Y             Z
Electronic contribution:     -0.00099       0.03933       0.05862
Nuclear contribution   :      0.00499      -0.19457      -0.28948
                        -----------------------------------------
Total Dipole Moment    :      0.00400      -0.15524      -0.23086
                        -----------------------------------------
Magnitude (a.u.)       :      0.27823
Magnitude (Debye)      :      0.70721



--------------------
Rotational spectrum 
--------------------
 
Rotational constants in cm-1:    10.618405     0.067165     0.066805 
Rotational constants in MHz : 318331.773573  2013.550394  2002.776621 

 Dipole components along the rotational axes: 
x,y,z [a.u.] :     0.000115    -0.000075    -0.278232 
x,y,z [Debye]:     0.000292    -0.000190    -0.707209 

 

--------------------------------
SUGGESTED CITATIONS FOR THIS RUN
--------------------------------

Below you find a list of papers that are relevant to this ORCA run
We neither can nor want to force you to cite these paper, but we appreciate if you do
You receive ORCA, which is the product of a lot of hard work by many enthusiastic individuals, for free
The *only* thing we kindly ask in return is that you cite our papers,
We deeply appreciate it, if you show your appreciation for ORCA but *not* just citing the generic ORCA reference.

Please note that relegating all ORCA citations to the supporting information does *not* help us.
SI sections are not index - citations you put there will not count into our citation statistics
But we need these citations in order to attract the funding ressources that allow us to do what we are doing

Therefore, please consider citing at least a few of the papers listed below, if you are a happy ORCA user

In addition to the list printed below, the program has created the file frag41.bibtex that contains the list in bibtex format
In this format, you can import it easily in all common literature databanks and citation aid programs


List of essential papers. We consider these as the minimum necessary citations

  1. Neese,F.
     Software update: the ORCA program system, version 5.0
     WIRES Comput. Molec. Sci., 2022 12(1)e1606
     doi.org/10.1002/wcms.1606

List of papers to cite with high priority. The work reported in these papers was absolutely
necessary for this run to complete.
Our perspective: the developers of density functionals and basis sets usually get cited in chemistry papers
Good! But without the algorithms to do something with them, the functionals or basis sets would not do anything.
Hence, in our opinion, the algorithm design and method developments papers are equally worthy of getting cited

  1. Neese,F.
     An improvement of the resolution of the identity approximation for the formation of the Coulomb matrix
     J. Comp. Chem., 2003 24(14)1740-1747
     doi.org/10.1002/jcc.10318
  2. Neese,F.; Wennmohs,F.; Hansen,A.; Becker,U.
     Efficient, approximate and parallel Hartree-Fock and hybrid DFT calculations. A 'chain-of-spheres' algorithm for the Hartree-Fock exchange
     Chem. Phys., 2009 356(1-3)98-109
     doi.org/10.1016/j.chemphys.2008.10.036
  3. Neese,F.; Hansen,A.; Liakos,D.G.
     Efficient and accurate approximations to the local coupled cluster singles doubles method using a truncated pair natural orbital basis
     J. Chem. Phys., 2009 131 064103
     doi.org/10.1063/1.3173827
  4. Neese,F.; Wennmohs,F.; Hansen,A.
     Efficient and accurate local approximations to coupled-electron pair approaches: An attempt to revive the pair natural orbital method
     J. Chem. Phys., 2009 130 114108
     doi.org/10.1063/1.3086717
  5. Riplinger,C.; Neese,F.
     An efficient and near linear scaling pair natural orbital based local coupled cluster method
     J. Chem. Phys., 2013 138(3)Art. No. 034106
     doi.org/10.1063/1.4773581
  6. Riplinger,C.; Sandhoefer,B.; Hansen,A.; Neese,F.
     Natural triple excitations in local coupled cluster calculations with pair natural orbitals
     J. Chem. Phys., 2013 139(13)Art. No. 134101
     doi.org/10.1063/1.4821834
  7. Riplinger,C.; Pinski,P.; Becker,U.; Valeev,E.F.; Neese,F.
     Sparse maps-A systematic infrastructure for reduced-scaling electronic structure methods. II. Linear scaling domain based pair natural orbital coupled cluster theory
     J. Chem. Phys., 2016 144 
     doi.org/10.1063/1.4939030
  8. Schneider,W.B.; Bistoni,G.; Sparta,M.; Saitow,M.; Riplinger,C.; Auer,A.A.; Neese,F.
     Decomposition of Intermolecular Interaction Energies within the Local Pair Natural Orbital Coupled Cluster Framework
     J. Theo. Comp. Chem., 2016 12 4778-4792
     doi.org/10.1021/acs.jctc.6b00523
  9. Bistoni,G.; Riplinger,C.; Minenkov,Y.; Cavallo,L.; Auer,A.A.; Neese,F.
     Treating Subvalence Correlation Effects in Domain Based Pair Natural Orbital Coupled Cluster Calculations: An Out-of-the-Box Approach
     J. Theo. Comp. Chem., 2017 13 3220-3227
     doi.org/10.1021/acs.jctc.7b00352
 10. Guo,Y.; Riplinger,C.; Becker,U.; Liakos,D.G.; Minenkov,Y.; Cavallo,L.; Neese,F.
     Communication: An improved linear scaling perturbative triples correction for the domain based local pair-natural orbital based singles and doubles coupled cluster method DLPNO-CCSD(T)
     J. Chem. Phys., 2018 148 5
     doi.org/10.1063/1.5011798
 11. Helmich-Paris,B.; de Souza,B.; Neese,F.; Izsk,R.
     An improved chain of spheres for exchange algorithm
     J. Chem. Phys., 2021 155 104109
     doi.org/doi: 10.1063/5.0058766.

List of suggested additional citations. These are papers that are important in the 'surrounding' of 
of this run, or papers that preceded the highly important papers. If you like your results we are grateful for a citation.

  1. Izsak,R.; Neese,F.
     An overlap fitted chain of spheres exchange method
     J. Chem. Phys., 2011 135 144105
     doi.org/10.1063/1.3646921
  2. Izsak,R.; Hansen,A.; Neese,F.
     The resolution of identity and chain of spheres approximations for the LPNO-CCSD singles Fock term
     Molec. Phys., 2012 110 2413-2417
     doi.org/10.1080/00268976.2012.687466
  3. Neese,F.
     The ORCA program system
     WIRES Comput. Molec. Sci., 2012 2(1)73-78
     doi.org/10.1002/wcms.81
  4. Izsak,R.; Neese,F.; Klopper,W.
     Robust fitting techniques in the chain of spheres approximation to the Fock exchange: The role of the complementary space
     J. Chem. Phys., 2013 139 
     doi.org/10.1063/1.4819264
  5. Neese,F.
     Software update: the ORCA program system, version 4.0
     WIRES Comput. Molec. Sci., 2018 8(1)1-6
     doi.org/10.1002/wcms.1327
  6. Neese,F.; Wennmohs,F.; Becker,U.; Riplinger,C.
     The ORCA quantum chemistry program package
     J. Chem. Phys., 2020 152 Art. No. L224108
     doi.org/10.1063/5.0004608
  7. Bistoni,G.
     Finding chemical concepts in the Hilbert space: Coupled cluster analyses of noncovalent interactions
     WIRES Comput. Molec. Sci., 2020 10(3)e1442
     doi.org/10.1002/wcms.1442

Timings for individual modules:

Sum of individual times         ...       36.415 sec (=   0.607 min)
GTO integral calculation        ...        1.172 sec (=   0.020 min)   3.2 %
SCF iterations                  ...        2.635 sec (=   0.044 min)   7.2 %
MDCI module                     ...       32.608 sec (=   0.543 min)  89.5 %
                             ****ORCA TERMINATED NORMALLY****
TOTAL RUN TIME: 0 days 0 hours 0 minutes 37 seconds 36 msec