                                 *****************
                                 * O   R   C   A *
                                 *****************

                                            #,                                       
                                            ###                                      
                                            ####                                     
                                            #####                                    
                                            ######                                   
                                           ########,                                 
                                     ,,################,,,,,                         
                               ,,#################################,,                 
                          ,,##########################################,,             
                       ,#########################################, ''#####,          
                    ,#############################################,,   '####,        
                  ,##################################################,,,,####,       
                ,###########''''           ''''###############################       
              ,#####''   ,,,,##########,,,,          '''####'''          '####       
            ,##' ,,,,###########################,,,                        '##       
           ' ,,###''''                  '''############,,,                           
         ,,##''                                '''############,,,,        ,,,,,,###''
      ,#''                                            '''#######################'''  
     '                                                          ''''####''''         
             ,#######,   #######,   ,#######,      ##                                
            ,#'     '#,  ##    ##  ,#'     '#,    #''#        ######   ,####,        
            ##       ##  ##   ,#'  ##            #'  '#       #        #'  '#        
            ##       ##  #######   ##           ,######,      #####,   #    #        
            '#,     ,#'  ##    ##  '#,     ,#' ,#      #,         ##   #,  ,#        
             '#######'   ##     ##  '#######'  #'      '#     #####' # '####'        



                  #######################################################
                  #                        -***-                        #
                  #          Department of theory and spectroscopy      #
                  #    Directorship and core code : Frank Neese         #
                  #        Max Planck Institute fuer Kohlenforschung    #
                  #                Kaiser Wilhelm Platz 1               #
                  #                 D-45470 Muelheim/Ruhr               #
                  #                      Germany                        #
                  #                                                     #
                  #                  All rights reserved                #
                  #                        -***-                        #
                  #######################################################


                         Program Version 5.0  -  CURRENT   -
                                (GIT: $76ccee9ca$)
                ($2022-06-14 15:14:42 +0200 $)

                  !                     WARNING:                         !
                  !         This is a DEVELOPMENT version                !

                         (BUILD: $Mi 15. Jun 00:07:41 CEST 2022$)


 With contributions from (in alphabetic order):
   Daniel Aravena         : Magnetic Suceptibility
   Michael Atanasov       : Ab Initio Ligand Field Theory (pilot matlab implementation)
   Alexander A. Auer      : GIAO ZORA, VPT2 properties, NMR spectrum
   Ute Becker             : Parallelization
   Giovanni Bistoni       : ED, misc. LED, open-shell LED, HFLD
   Martin Brehm           : Molecular dynamics
   Dmytro Bykov           : SCF Hessian
   Vijay G. Chilkuri      : MRCI spin determinant printing, contributions to CSF-ICE
   Dipayan Datta          : RHF DLPNO-CCSD density
   Achintya Kumar Dutta   : EOM-CC, STEOM-CC
   Dmitry Ganyushin       : Spin-Orbit,Spin-Spin,Magnetic field MRCI
   Miquel Garcia          : C-PCM and meta-GGA Hessian, CC/C-PCM, Gaussian charge scheme
   Yang Guo               : DLPNO-NEVPT2, F12-NEVPT2, CIM, IAO-localization
   Andreas Hansen         : Spin unrestricted coupled pair/coupled cluster methods
   Benjamin Helmich-Paris : MC-RPA, TRAH-SCF, COSX integrals
   Lee Huntington         : MR-EOM, pCC
   Robert Izsak           : Overlap fitted RIJCOSX, COSX-SCS-MP3, EOM
   Marcus Kettner         : VPT2
   Christian Kollmar      : KDIIS, OOCD, Brueckner-CCSD(T), CCSD density, CASPT2, CASPT2-K, improved NEVPT2
   Simone Kossmann        : Meta GGA functionals, TD-DFT gradient, OOMP2, MP2 Hessian
   Martin Krupicka        : Initial AUTO-CI
   Lucas Lang             : DCDCAS
   Marvin Lechner         : AUTO-CI (C++ implementation), FIC-MRCC
   Dagmar Lenk            : GEPOL surface, SMD
   Dimitrios Liakos       : Extrapolation schemes; Compound Job, initial MDCI parallelization
   Dimitrios Manganas     : Further ROCIS development; embedding schemes
   Dimitrios Pantazis     : SARC Basis sets
   Anastasios Papadopoulos: AUTO-CI, single reference methods and gradients
   Taras Petrenko         : DFT Hessian,TD-DFT gradient, ASA, ECA, R-Raman, ABS, FL, XAS/XES, NRVS
   Peter Pinski           : DLPNO-MP2, DLPNO-MP2 Gradient
   Christoph Reimann      : Effective Core Potentials
   Marius Retegan         : Local ZFS, SOC
   Christoph Riplinger    : Optimizer, TS searches, QM/MM, DLPNO-CCSD(T), (RO)-DLPNO pert. Triples
   Tobias Risthaus        : Range-separated hybrids, TD-DFT gradient, RPA, STAB
   Michael Roemelt        : Original ROCIS implementation
   Masaaki Saitow         : Open-shell DLPNO-CCSD energy and density
   Barbara Sandhoefer     : DKH picture change effects
   Avijit Sen             : IP-ROCIS
   Kantharuban Sivalingam : CASSCF convergence, NEVPT2, FIC-MRCI
   Bernardo de Souza      : ESD, SOC TD-DFT
   Georgi Stoychev        : AutoAux, RI-MP2 NMR, DLPNO-MP2 response
   Willem Van den Heuvel  : Paramagnetic NMR
   Boris Wezisla          : Elementary symmetry handling
   Frank Wennmohs         : Technical directorship


 We gratefully acknowledge several colleagues who have allowed us to
 interface, adapt or use parts of their codes:
   Stefan Grimme, W. Hujo, H. Kruse, P. Pracht,  : VdW corrections, initial TS optimization,
                  C. Bannwarth, S. Ehlert          DFT functionals, gCP, sTDA/sTD-DF
   Ed Valeev, F. Pavosevic, A. Kumar             : LibInt (2-el integral package), F12 methods
   Garnet Chan, S. Sharma, J. Yang, R. Olivares  : DMRG
   Ulf Ekstrom                                   : XCFun DFT Library
   Mihaly Kallay                                 : mrcc  (arbitrary order and MRCC methods)
   Jiri Pittner, Ondrej Demel                    : Mk-CCSD
   Frank Weinhold                                : gennbo (NPA and NBO analysis)
   Christopher J. Cramer and Donald G. Truhlar   : smd solvation model
   Lars Goerigk                                  : TD-DFT with DH, B97 family of functionals
   V. Asgeirsson, H. Jonsson                     : NEB implementation
   FAccTs GmbH                                   : IRC, NEB, NEB-TS, DLPNO-Multilevel, CI-OPT
                                                   MM, QMMM, 2- and 3-layer-ONIOM, Crystal-QMMM,
                                                   LR-CPCM, SF, NACMEs, symmetry and pop. for TD-DFT,
                                                   nearIR, NL-DFT gradient (VV10), updates on ESD,
                                                   ML-optimized integration grids
   S Lehtola, MJT Oliveira, MAL Marques          : LibXC Library
   Liviu Ungur et al                             : ANISO software


 Your calculation uses the libint2 library for the computation of 2-el integrals
 For citations please refer to: http://libint.valeyev.net

 Your ORCA version has been built with support for libXC version: 5.2.2
 For citations please refer to: https://tddft.org/programs/libxc/

 This ORCA versions uses:
   CBLAS   interface :  Fast vector & matrix operations
   LAPACKE interface :  Fast linear algebra routines
   SCALAPACK package :  Parallel linear algebra routines
   Shared memory     :  Shared parallel matrices


================================================================================

----- Orbital basis set information -----
Your calculation utilizes the basis: aug-cc-pVTZ 
    H, B-Ne : Obtained from the ccRepo (grant-hill.group.shef.ac.uk/ccrepo) Feb. 2017
              R. A. Kendall, T. H. Dunning, Jr., R. J. Harrison, J. Chem. Phys. 96, 6796 (1992)
         He : Obtained from the ccRepo (grant-hill.group.shef.ac.uk/ccrepo) Feb. 2017
              D. E. Woon, T. H. Dunning, Jr., J. Chem. Phys. 100, 2975 (1994)
  Li-Be, Na : Obtained from the ccRepo (grant-hill.group.shef.ac.uk/ccrepo) Feb. 2017
              B. P. Prascher, D. E. Woon, K. A. Peterson, T. H. Dunning, Jr., A. K. Wilson, Theor. Chem. Acc. 128, 69 (2011)
         Mg : Obtained from the Peterson Research Group Website (tyr0.chem.wsu.edu/~kipeters) Feb. 2017
              B. P. Prascher, D. E. Woon, K. A. Peterson, T. H. Dunning, Jr., A. K. Wilson, Theor. Chem. Acc. 128, 69 (2011)
      Al-Ar : Obtained from the ccRepo (grant-hill.group.shef.ac.uk/ccrepo) Feb. 2017
              D. E. Woon, T. H. Dunning, Jr., J. Chem. Phys. 98, 1358 (1993)
      Sc-Zn : Obtained from the ccRepo (grant-hill.group.shef.ac.uk/ccrepo) Feb. 2017
              N. B. Balabanov, K. A. Peterson, J. Chem. Phys. 123, 064107 (2005)
              N. B. Balabanov, K. A. Peterson, J. Chem. Phys. 125, 074110 (2006)
      Ga-Kr : Obtained from the ccRepo (grant-hill.group.shef.ac.uk/ccrepo) Feb. 2017
              A. K. Wilson, D. E. Woon, K. A. Peterson, T. H. Dunning, Jr., J. Chem. Phys. 110, 7667 (1999)
     Ag, Au : Obtained from the Peterson Research Group Website (tyr0.chem.wsu.edu/~kipeters) Feb. 2017
              K. A. Peterson, C. Puzzarini, Theor. Chem. Acc. 114, 283 (2005)

----- AuxJ basis set information -----
----- AuxC basis set information -----
================================================================================
                                        WARNINGS
                       Please study these warnings very carefully!
================================================================================


WARNING: Post HF methods need fully converged wavefunctions
  ===> : Setting SCFConvForced true
         You can overwrite this default with %scf ConvForced false 


WARNING: MDCI localization with Augmented Hessian Foster-Boys
  ===> : Switching off randomization!

INFO   : the flag for use of the SHARK integral package has been found!

================================================================================
                                       INPUT FILE
================================================================================
NAME = frag54.inp
|  1> ! DLPNO-CCSD(T1) aug-cc-pVTZ DEFGRID3 RIJCOSX def2/J aug-cc-pVQZ/C verytightscf TightPNO LED
|  2> 
|  3> %pal nprocs 16 end
|  4> %maxcore 4000
|  5> %scf maxiter 999 end
|  6> %basis auxj "autoaux" auxc "autoaux" autoauxlmax true end
|  7> %mdci TCutPNO 1e-7 printlevel 3 end
|  8> 
|  9> * xyz 0 1
| 10> O(1)    -0.845377446     1.902266646    -1.724481185
| 11> H(1)    -1.198971324     1.335278306    -1.003913817
| 12> H(1)    -0.953209570     1.388839038    -2.529056860
| 13> O(2)     3.364853284     1.252522284    -0.119963272
| 14> H(2)     2.731853532     1.891821037    -0.517486897
| 15> H(2)     4.212012919     1.443946099    -0.529713339
| 16> *
| 17> 
| 18>                          ****END OF INPUT****
================================================================================

                       ****************************
                       * Single Point Calculation *
                       ****************************

---------------------------------
CARTESIAN COORDINATES (ANGSTROEM)
---------------------------------
  O     -0.845377    1.902267   -1.724481
  H     -1.198971    1.335278   -1.003914
  H     -0.953210    1.388839   -2.529057
  O      3.364853    1.252522   -0.119963
  H      2.731854    1.891821   -0.517487
  H      4.212013    1.443946   -0.529713

----------------------------
CARTESIAN COORDINATES (A.U.)
----------------------------
  NO LB      ZA    FRAG     MASS         X           Y           Z
   0 O     8.0000    1    15.999   -1.597532    3.594763   -3.258797
   1 H     1.0000    1     1.008   -2.265727    2.523310   -1.897122
   2 H     1.0000    1     1.008   -1.801305    2.624525   -4.779225
   3 O     8.0000    2    15.999    6.358651    2.366924   -0.226698
   4 H     1.0000    2     1.008    5.162455    3.575024   -0.977909
   5 H     1.0000    2     1.008    7.959551    2.728663   -1.001013

----------------------------------------------
CARTESIAN COORDINATES OF FRAGMENTS (ANGSTROEM)
----------------------------------------------

 FRAGMENT 1 
  O    -0.845377    1.902267   -1.724481
  H    -1.198971    1.335278   -1.003914
  H    -0.953210    1.388839   -2.529057

 FRAGMENT 2 
  O     3.364853    1.252522   -0.119963
  H     2.731854    1.891821   -0.517487
  H     4.212013    1.443946   -0.529713

--------------------------------
INTERNAL COORDINATES (ANGSTROEM)
--------------------------------
 O      0   0   0     0.000000000000     0.00000000     0.00000000
 H      1   0   0     0.982711422586     0.00000000     0.00000000
 H      1   2   0     0.960509079824   105.39089909     0.00000000
 O      1   2   3     4.552217950508    89.54085035   250.57361019
 H      4   1   2     0.983573390273    33.85502832   218.96539951
 H      4   1   2     0.960321634417   129.57195911   166.78483370

---------------------------
INTERNAL COORDINATES (A.U.)
---------------------------
 O      0   0   0     0.000000000000     0.00000000     0.00000000
 H      1   0   0     1.857055457364     0.00000000     0.00000000
 H      1   2   0     1.815099110012   105.39089909     0.00000000
 O      1   2   3     8.602445228380    89.54085035   250.57361019
 H      4   1   2     1.858684340228    33.85502832   218.96539951
 H      4   1   2     1.814744889527   129.57195911   166.78483370

---------------------
BASIS SET INFORMATION
---------------------
There are 2 groups of distinct atoms

 Group   1 Type O   : 19s6p3d2f contracted to 5s4p3d2f pattern {88111/3111/111/11}
 Group   2 Type H   : 6s3p2d contracted to 4s3p2d pattern {3111/111/11}

Atom   0O    basis set group =>   1
Atom   1H    basis set group =>   2
Atom   2H    basis set group =>   2
Atom   3O    basis set group =>   1
Atom   4H    basis set group =>   2
Atom   5H    basis set group =>   2
---------------------------------
AUXILIARY/J BASIS SET INFORMATION
---------------------------------
There are 2 groups of distinct atoms

 Group   1 Type O   : 16s14p13d7f5g3h2i contracted to 16s14p13d7f5g3h2i pattern {1111111111111111/11111111111111/1111111111111/1111111/11111/111/11}
 Group   2 Type H   : 14s6p5d4f3g contracted to 14s6p5d4f3g pattern {11111111111111/111111/11111/1111/111}

Atom   0O    basis set group =>   1
Atom   1H    basis set group =>   2
Atom   2H    basis set group =>   2
Atom   3O    basis set group =>   1
Atom   4H    basis set group =>   2
Atom   5H    basis set group =>   2
---------------------------------
AUXILIARY/C BASIS SET INFORMATION
---------------------------------
There are 2 groups of distinct atoms

 Group   1 Type O   : 16s14p13d7f5g3h2i contracted to 16s14p13d7f5g3h2i pattern {1111111111111111/11111111111111/1111111111111/1111111/11111/111/11}
 Group   2 Type H   : 14s6p5d4f3g contracted to 14s6p5d4f3g pattern {11111111111111/111111/11111/1111/111}

Atom   0O    basis set group =>   1
Atom   1H    basis set group =>   2
Atom   2H    basis set group =>   2
Atom   3O    basis set group =>   1
Atom   4H    basis set group =>   2
Atom   5H    basis set group =>   2

Checking for AutoStart:
The File: frag54.gbw exists
Trying to determine its content:
     ... Fine, the file contains calculation information
     ... Fine, the calculation information was read
     ... Fine, the file contains a basis set
     ... Fine, the basis set was read
     ... Fine, the file contains a geometry
     ... Fine, the geometry was read
     ... Fine, the file contains a set of orbitals
     ... Fine, the orbitals can be read
     => possible old guess file was deleted
     => GBW file was renamed to GES file
     => GES file is set as startup file
     => Guess is set to MORead
     ... now leaving AutoStart



           ************************************************************
           *        Program running with 16 parallel MPI-processes    *
           *              working on a common directory               *
           ************************************************************
------------------------------------------------------------------------------
                           ORCA GTO INTEGRAL CALCULATION
                           -- RI-GTO INTEGRALS CHOSEN --
------------------------------------------------------------------------------
------------------------------------------------------------------------------
                   ___                                                        
                  /   \      - P O W E R E D   B Y -                         
                 /     \                                                     
                 |  |  |   _    _      __       _____    __    __             
                 |  |  |  | |  | |    /  \     |  _  \  |  |  /  |          
                  \  \/   | |  | |   /    \    | | | |  |  | /  /          
                 / \  \   | |__| |  /  /\  \   | |_| |  |  |/  /          
                |  |  |   |  __  | /  /__\  \  |    /   |      \           
                |  |  |   | |  | | |   __   |  |    \   |  |\   \          
                \     /   | |  | | |  |  |  |  | |\  \  |  | \   \       
                 \___/    |_|  |_| |__|  |__|  |_| \__\ |__|  \__/        
                                                                              
                      - O R C A' S   B I G   F R I E N D -                    
                                      &                                       
                       - I N T E G R A L  F E E D E R -                       
                                                                              
 v1 FN, 2020, v2 2021                                                         
------------------------------------------------------------------------------


Reading SHARK input file frag54.SHARKINP.tmp ... ok
Calculating pre-screening integrals         ... done (  0.0 sec) Dimension = 76
Calculating pre-screening integrals (ORCA)  ... done (  0.0 sec) Dimension = 64
Organizing shell pair data                  ... done (  0.0 sec)
Shell pair information
Total number of shell pairs                 ...      2926
Shell pairs after pre-screening             ...      2549
Total number of primitive shell pairs       ...      3934
Primitive shell pairs kept                  ...      3224
          la=0 lb=0:    614 shell pairs
          la=1 lb=0:    665 shell pairs
          la=1 lb=1:    196 shell pairs
          la=2 lb=0:    457 shell pairs
          la=2 lb=1:    260 shell pairs
          la=2 lb=2:     99 shell pairs
          la=3 lb=0:    123 shell pairs
          la=3 lb=1:     75 shell pairs
          la=3 lb=2:     51 shell pairs
          la=3 lb=3:      9 shell pairs

Calculating one electron integrals          ... done (  0.0 sec)
Calculating RI/J V-Matrix + Cholesky decomp.... done (  0.2 sec)
Calculating RI/C V-Matrix + Cholesky decomp.... done (  0.2 sec)
Calculating Nuclear repulsion               ... done (  0.0 sec) ENN=     29.701680866602 Eh

SHARK setup successfully completed in   0.5 seconds

Maximum memory used throughout the entire GTOINT-calculation: 37.5 MB


           ************************************************************
           *        Program running with 16 parallel MPI-processes    *
           *              working on a common directory               *
           ************************************************************
-------------------------------------------------------------------------------
                                 ORCA SCF
-------------------------------------------------------------------------------

------------
SCF SETTINGS
------------
Hamiltonian:
 Ab initio Hamiltonian  Method          .... Hartree-Fock(GTOs)
 RI-approximation to the Coulomb term is turned on
   Number of AuxJ basis functions       .... 1000
   RIJ-COSX (HFX calculated with COS-X)).... on


General Settings:
 Integral files         IntName         .... frag54
 Hartree-Fock type      HFTyp           .... RHF
 Total Charge           Charge          ....    0
 Multiplicity           Mult            ....    1
 Number of Electrons    NEL             ....   20
 Basis Dimension        Dim             ....  184
 Nuclear Repulsion      ENuc            ....     29.7016808666 Eh

Convergence Acceleration:
 DIIS                   CNVDIIS         .... on
   Start iteration      DIISMaxIt       ....    12
   Startup error        DIISStart       ....  0.200000
   # of expansion vecs  DIISMaxEq       ....     5
   Bias factor          DIISBfac        ....   1.050
   Max. coefficient     DIISMaxC        ....  10.000
 Trust-Rad. Augm. Hess. CNVTRAH         .... auto
   Auto Start mean grad. ratio tolernc. ....  1.125000
   Auto Start start iteration           ....     1
   Auto Start num. interpolation iter.  ....    10
   Max. Number of Micro iterations      ....    24
   Max. Number of Macro iterations      .... Maxiter - #DIIS iter
   Max. Number of back steps            ....     5
   Number of Davidson start vectors     ....     2
   Converg. threshold I  (grad. norm)   ....   2.000e-06
   Converg. threshold II (energy diff.) ....   1.000e-09
   Grad. Scal. Fac. for Micro threshold ....   0.100
   Minimum threshold for Micro iter.    ....   1.000e-02
   NR start threshold (gradient norm)   ....   1.000e-04
   Initial trust radius                 ....   0.400
   Minimum AH scaling param. (alpha)    ....   1.000
   Maximum AH scaling param. (alpha)    .... 1000.000
   Inactive MOs                         .... canonicalized
   Orbital update algorithm             .... Taylor
   White noise on init. David. guess    .... on
   Maximum white noise                  ....   0.010
   Quad. conv. algorithm                .... NR
   Preconditioner                       .... approx. diagonal
 SOSCF                  CNVSOSCF        .... on
   Start iteration      SOSCFMaxIt      ....   150
   Startup grad/error   SOSCFStart      ....  0.003300
 Level Shifting         CNVShift        .... on
   Level shift para.    LevelShift      ....    0.2500
   Turn off err/grad.   ShiftErr        ....    0.0010
 Zerner damping         CNVZerner       .... off
 Static damping         CNVDamp         .... on
   Fraction old density DampFac         ....    0.7000
   Max. Damping (<1)    DampMax         ....    0.9800
   Min. Damping (>=0)   DampMin         ....    0.0000
   Turn off err/grad.   DampErr         ....    0.1000

SCF Procedure:
 Maximum # iterations   MaxIter         ....   999
 SCF integral mode      SCFMode         .... Direct
   Integral package                     .... SHARK and LIBINT hybrid scheme
 Reset frequency        DirectResetFreq ....    20
 Integral Threshold     Thresh          ....  1.000e-12 Eh
 Primitive CutOff       TCut            ....  1.000e-14 Eh

Convergence Tolerance:
 Convergence Check Mode ConvCheckMode   .... Total+1el-Energy
 Convergence forced     ConvForced      .... 1
 Energy Change          TolE            ....  1.000e-09 Eh
 1-El. energy change                    ....  1.000e-06 Eh
 Orbital Gradient       TolG            ....  2.000e-06
 Orbital Rotation angle TolX            ....  2.000e-06
 DIIS Error             TolErr          ....  1.000e-08


Diagonalization of the overlap matrix:
Smallest eigenvalue                        ... 3.491e-04
Time for diagonalization                   ...    0.006 sec
Threshold for overlap eigenvalues          ... 1.000e-08
Number of eigenvalues below threshold      ... 0
Time for construction of square roots      ...    0.005 sec
Total time needed                          ...    0.012 sec

---------------------
INITIAL GUESS: MOREAD
---------------------
Guess MOs are being read from file: frag54.ges
Input Geometry matches current geometry (good)
Input basis set matches current basis set (good)
MOs were renormalized
MOs were reorthogonalized (Cholesky)
                      ------------------
                      INITIAL GUESS DONE (   0.0 sec)
                      ------------------
--------------------
COSX GRID GENERATION
--------------------

GRIDX 1
-------
General Integration Accuracy     IntAcc      ... 4.020
Radial Grid Type                 RadialGrid  ... OptM3 with GC (2021)
Angular Grid (max. ang.)         AngularGrid ... 2 (Lebedev-110)
Angular grid pruning method      GridPruning ... 4 (adaptive)
Weight generation scheme         WeightScheme... Becke
Basis function cutoff            BFCut       ... 1.0000e-12
Integration weight cutoff        WCut        ... 1.0000e-14
Angular grids for H and He will be reduced by one unit
Partially contracted basis set               ... on
Rotationally invariant grid construction     ... off

Total number of grid points                  ...     8287
Total number of batches                      ...      133
Average number of points per batch           ...       62
Average number of grid points per atom       ...     1381
UseSFitting                                  ... on

GRIDX 2
-------
General Integration Accuracy     IntAcc      ... 4.338
Radial Grid Type                 RadialGrid  ... OptM3 with GC (2021)
Angular Grid (max. ang.)         AngularGrid ... 3 (Lebedev-194)
Angular grid pruning method      GridPruning ... 4 (adaptive)
Weight generation scheme         WeightScheme... Becke
Basis function cutoff            BFCut       ... 1.0000e-12
Integration weight cutoff        WCut        ... 1.0000e-14
Angular grids for H and He will be reduced by one unit
Partially contracted basis set               ... on
Rotationally invariant grid construction     ... off

Total number of grid points                  ...    18924
Total number of batches                      ...      299
Average number of points per batch           ...       63
Average number of grid points per atom       ...     3154
UseSFitting                                  ... on

GRIDX 3
-------
General Integration Accuracy     IntAcc      ... 4.871
Radial Grid Type                 RadialGrid  ... OptM3 with GC (2021)
Angular Grid (max. ang.)         AngularGrid ... 4 (Lebedev-302)
Angular grid pruning method      GridPruning ... 4 (adaptive)
Weight generation scheme         WeightScheme... Becke
Basis function cutoff            BFCut       ... 1.0000e-12
Integration weight cutoff        WCut        ... 1.0000e-14
Angular grids for H and He will be reduced by one unit
Partially contracted basis set               ... on
Rotationally invariant grid construction     ... off

Total number of grid points                  ...    36958
Total number of batches                      ...      580
Average number of points per batch           ...       63
Average number of grid points per atom       ...     6160
UseSFitting                                  ... on

Time for X-Grid setup             =    0.258 sec

 re-compute Schwartz prescreening matrix in partially contracted basis (1) ...done (   0.045 sec)
--------------
SCF ITERATIONS
--------------
ITER       Energy         Delta-E        Max-DP      RMS-DP      [F,P]     Damp
               ***  Starting incremental Fock matrix formation  ***
                      *** Initiating the SOSCF procedure ***
                      *** Re-Reading the Fockian *** 
                      *** Removing any level shift *** 
ITER       Energy         Delta-E        Max-DP      RMS-DP   
  0   -152.1196017280   0.000000000000 0.00199986  0.00003199
               *** Restarting incremental Fock matrix formation ***
  1   -152.1199435130  -0.000341785029 0.00195879  0.00003083
  2   -152.1199436012  -0.000000088241 0.00005672  0.00000163
  3   -152.1199434435   0.000000157725 0.00001137  0.00000024
  4   -152.1199434383   0.000000005256 0.00000196  0.00000006
  5   -152.1199434403  -0.000000002085 0.00000096  0.00000003
                 **** Energy Check signals convergence ****
              ***Rediagonalizing the Fockian in SOSCF/NRSCF***

               *****************************************************
               *                     SUCCESS                       *
               *           SCF CONVERGED AFTER   6 CYCLES          *
               *****************************************************

Old exchange energy                            =    -17.857095245 Eh
New exchange energy                            =    -17.856744779 Eh
Exchange energy change after final integration =      0.000350466 Eh
Total energy after final integration           =   -152.119592976 Eh
Final COS-X integration done in                =     0.379 sec

----------------
TOTAL SCF ENERGY
----------------

Total Energy       :         -152.11959298 Eh           -4139.38457 eV

Components:
Nuclear Repulsion  :           29.70168087 Eh             808.22383 eV
Electronic Energy  :         -181.82127384 Eh           -4947.60839 eV
One Electron Energy:         -268.79909056 Eh           -7314.39511 eV
Two Electron Energy:           86.97781672 Eh            2366.78672 eV
Max COSX asymmetry :            0.00000032 Eh               0.00001 eV

Virial components:
Potential Energy   :         -303.91464255 Eh           -8269.93786 eV
Kinetic Energy     :          151.79504958 Eh            4130.55329 eV
Virial Ratio       :            2.00213804


---------------
SCF CONVERGENCE
---------------

  Last Energy change         ...   -9.8007e-10  Tolerance :   1.0000e-09
  Last MAX-Density change    ...    1.3323e-15  Tolerance :   1.0000e-08
  Last RMS-Density change    ...    9.9690e-18  Tolerance :   1.0000e-09

             **** THE GBW FILE WAS UPDATED (frag54.gbw) ****
             **** DENSITY frag54.scfp WAS UPDATED ****
             **** ENERGY FILE WAS UPDATED (frag54.en.tmp) ****
             **** THE GBW FILE WAS UPDATED (frag54.gbw) ****
             **** DENSITY frag54.scfp WAS UPDATED ****
             **** ENERGY FILE WAS UPDATED (frag54.en.tmp) ****
----------------
ORBITAL ENERGIES
----------------

  NO   OCC          E(Eh)            E(eV) 
   0   2.0000     -20.572948      -559.8184 
   1   2.0000     -20.563423      -559.5592 
   2   2.0000      -1.349456       -36.7206 
   3   2.0000      -1.339831       -36.4586 
   4   2.0000      -0.715279       -19.4637 
   5   2.0000      -0.705582       -19.1999 
   6   2.0000      -0.584584       -15.9073 
   7   2.0000      -0.574853       -15.6425 
   8   2.0000      -0.512879       -13.9561 
   9   2.0000      -0.503245       -13.6940 
  10   0.0000       0.026464         0.7201 
  11   0.0000       0.039900         1.0857 
  12   0.0000       0.048110         1.3091 
  13   0.0000       0.065260         1.7758 
  14   0.0000       0.132855         3.6152 
  15   0.0000       0.142325         3.8729 
  16   0.0000       0.159483         4.3397 
  17   0.0000       0.173609         4.7241 
  18   0.0000       0.177131         4.8200 
  19   0.0000       0.179612         4.8875 
  20   0.0000       0.194041         5.2801 
  21   0.0000       0.206926         5.6307 
  22   0.0000       0.222698         6.0599 
  23   0.0000       0.227281         6.1846 
  24   0.0000       0.251104         6.8329 
  25   0.0000       0.260052         7.0764 
  26   0.0000       0.279798         7.6137 
  27   0.0000       0.291274         7.9260 
  28   0.0000       0.312870         8.5136 
  29   0.0000       0.319744         8.7007 
  30   0.0000       0.343473         9.3464 
  31   0.0000       0.370924        10.0934 
  32   0.0000       0.387807        10.5528 
  33   0.0000       0.407700        11.0941 
  34   0.0000       0.439090        11.9482 
  35   0.0000       0.455315        12.3898 
  36   0.0000       0.465120        12.6566 
  37   0.0000       0.497298        13.5322 
  38   0.0000       0.597965        16.2715 
  39   0.0000       0.613382        16.6910 
  40   0.0000       0.650442        17.6994 
  41   0.0000       0.683674        18.6037 
  42   0.0000       0.711628        19.3644 
  43   0.0000       0.719544        19.5798 
  44   0.0000       0.721141        19.6233 
  45   0.0000       0.735821        20.0227 
  46   0.0000       0.750135        20.4122 
  47   0.0000       0.768853        20.9216 
  48   0.0000       0.816174        22.2092 
  49   0.0000       0.834186        22.6994 
  50   0.0000       0.840653        22.8753 
  51   0.0000       0.854695        23.2574 
  52   0.0000       0.883961        24.0538 
  53   0.0000       0.908185        24.7130 
  54   0.0000       0.911777        24.8107 
  55   0.0000       0.914338        24.8804 
  56   0.0000       0.919334        25.0164 
  57   0.0000       0.926272        25.2052 
  58   0.0000       0.929483        25.2925 
  59   0.0000       0.945229        25.7210 
  60   0.0000       0.961014        26.1505 
  61   0.0000       0.968500        26.3542 
  62   0.0000       0.989444        26.9241 
  63   0.0000       1.009363        27.4662 
  64   0.0000       1.037405        28.2292 
  65   0.0000       1.041503        28.3407 
  66   0.0000       1.051270        28.6065 
  67   0.0000       1.075795        29.2739 
  68   0.0000       1.099122        29.9086 
  69   0.0000       1.104416        30.0527 
  70   0.0000       1.131074        30.7781 
  71   0.0000       1.140853        31.0442 
  72   0.0000       1.168191        31.7881 
  73   0.0000       1.192354        32.4456 
  74   0.0000       1.207781        32.8654 
  75   0.0000       1.236833        33.6559 
  76   0.0000       1.264294        34.4032 
  77   0.0000       1.289850        35.0986 
  78   0.0000       1.511174        41.1211 
  79   0.0000       1.527714        41.5712 
  80   0.0000       1.547837        42.1188 
  81   0.0000       1.582680        43.0669 
  82   0.0000       1.588891        43.2359 
  83   0.0000       1.590274        43.2736 
  84   0.0000       1.796673        48.8900 
  85   0.0000       1.801475        49.0206 
  86   0.0000       1.819900        49.5220 
  87   0.0000       1.846995        50.2593 
  88   0.0000       1.972689        53.6796 
  89   0.0000       1.988500        54.1098 
  90   0.0000       2.108388        57.3722 
  91   0.0000       2.113912        57.5225 
  92   0.0000       2.255644        61.3792 
  93   0.0000       2.283013        62.1239 
  94   0.0000       2.312490        62.9261 
  95   0.0000       2.320408        63.1415 
  96   0.0000       2.336762        63.5865 
  97   0.0000       2.343351        63.7658 
  98   0.0000       2.413227        65.6672 
  99   0.0000       2.422719        65.9255 
 100   0.0000       2.426145        66.0188 
 101   0.0000       2.439013        66.3689 
 102   0.0000       2.448313        66.6220 
 103   0.0000       2.455796        66.8256 
 104   0.0000       2.485199        67.6257 
 105   0.0000       2.522636        68.6444 
 106   0.0000       2.685468        73.0753 
 107   0.0000       2.707850        73.6843 
 108   0.0000       2.712076        73.7993 
 109   0.0000       2.719159        73.9921 
 110   0.0000       2.758177        75.0538 
 111   0.0000       2.776839        75.5616 
 112   0.0000       2.821081        76.7655 
 113   0.0000       2.846403        77.4546 
 114   0.0000       2.882306        78.4315 
 115   0.0000       2.902237        78.9739 
 116   0.0000       3.626547        98.6834 
 117   0.0000       3.640247        99.0562 
 118   0.0000       3.760935       102.3403 
 119   0.0000       3.766130       102.4816 
 120   0.0000       4.001817       108.8950 
 121   0.0000       4.012359       109.1818 
 122   0.0000       4.081929       111.0749 
 123   0.0000       4.105656       111.7206 
 124   0.0000       4.168949       113.4429 
 125   0.0000       4.183109       113.8282 
 126   0.0000       4.225200       114.9735 
 127   0.0000       4.242301       115.4389 
 128   0.0000       4.294615       116.8624 
 129   0.0000       4.306065       117.1740 
 130   0.0000       4.373026       118.9961 
 131   0.0000       4.380387       119.1964 
 132   0.0000       4.388680       119.4221 
 133   0.0000       4.395573       119.6096 
 134   0.0000       4.401184       119.7623 
 135   0.0000       4.405806       119.8881 
 136   0.0000       4.497661       122.3876 
 137   0.0000       4.510186       122.7284 
 138   0.0000       4.705920       128.0546 
 139   0.0000       4.730589       128.7259 
 140   0.0000       4.800891       130.6389 
 141   0.0000       4.811329       130.9229 
 142   0.0000       5.103689       138.8785 
 143   0.0000       5.114451       139.1713 
 144   0.0000       5.123916       139.4288 
 145   0.0000       5.127740       139.5329 
 146   0.0000       5.243447       142.6814 
 147   0.0000       5.257053       143.0517 
 148   0.0000       5.287552       143.8816 
 149   0.0000       5.295991       144.1112 
 150   0.0000       5.482781       149.1941 
 151   0.0000       5.490815       149.4127 
 152   0.0000       5.665484       154.1657 
 153   0.0000       5.672427       154.3546 
 154   0.0000       6.153183       167.4366 
 155   0.0000       6.161586       167.6653 
 156   0.0000       6.521240       177.4520 
 157   0.0000       6.537417       177.8922 
 158   0.0000       6.704039       182.4262 
 159   0.0000       6.716123       182.7550 
 160   0.0000       6.861893       186.7216 
 161   0.0000       6.869835       186.9377 
 162   0.0000       7.123735       193.8467 
 163   0.0000       7.126484       193.9215 
 164   0.0000       7.237152       196.9329 
 165   0.0000       7.252487       197.3502 
 166   0.0000       7.288966       198.3428 
 167   0.0000       7.291152       198.4023 
 168   0.0000       7.299609       198.6324 
 169   0.0000       7.304872       198.7757 
 170   0.0000       7.325762       199.3441 
 171   0.0000       7.332319       199.5226 
 172   0.0000       7.357412       200.2054 
 173   0.0000       7.369763       200.5415 
 174   0.0000       7.508078       204.3052 
 175   0.0000       7.514853       204.4896 
 176   0.0000       7.867527       214.0863 
 177   0.0000       7.878916       214.3962 
 178   0.0000       7.901369       215.0072 
 179   0.0000       7.913764       215.3445 
 180   0.0000       8.729547       237.5430 
 181   0.0000       8.738860       237.7965 
 182   0.0000      15.422701       419.6730 
 183   0.0000      15.448667       420.3796 

--------------------
FRAGMENT INFORMATION
--------------------
Fragment  1:    0   1   2 
Fragment  2:    3   4   5 


                    ********************************
                    * MULLIKEN POPULATION ANALYSIS *
                    ********************************

-------------------------
MULLIKEN FRAGMENT CHARGES
-------------------------
 Fragment   0 :   0.000664
 Fragment   1 :  -0.000664
Sum of fragment charges:   -0.0000000

---------------------------------
MULLIKEN FRAGMENT OVERLAP CHARGES
---------------------------------
                  0          1    
      0      11.132782   0.000416
      1       0.000416  11.113292

-----------------------
MULLIKEN ATOMIC CHARGES
-----------------------
   0 O :   -0.466670
   1 H :    0.242922
   2 H :    0.224412
   3 O :   -0.469465
   4 H :    0.251021
   5 H :    0.217780
Sum of atomic charges:   -0.0000000

--------------------------------
MULLIKEN REDUCED ORBITAL CHARGES
--------------------------------
  0 O s       :     3.872694  s :     3.872694
      pz      :     1.226694  p :     4.574764
      px      :     1.806219
      py      :     1.541851
      dz2     :    -0.000598  d :     0.017868
      dxz     :     0.001839
      dyz     :     0.011002
      dx2y2   :     0.002561
      dxy     :     0.003064
      f0      :     0.000069  f :     0.001345
      f+1     :     0.000144
      f-1     :     0.000213
      f+2     :     0.000294
      f-2     :     0.000382
      f+3     :     0.000163
      f-3     :     0.000079
  1 H s       :     0.645960  s :     0.645960
      pz      :     0.024528  p :     0.093911
      px      :     0.042295
      py      :     0.027089
      dz2     :     0.005163  d :     0.017207
      dxz     :     0.004112
      dyz     :     0.002744
      dx2y2   :     0.003220
      dxy     :     0.001967
  2 H s       :     0.656016  s :     0.656016
      pz      :     0.023335  p :     0.100366
      px      :     0.047470
      py      :     0.029562
      dz2     :     0.004247  d :     0.019206
      dxz     :     0.007747
      dyz     :     0.003506
      dx2y2   :     0.001527
      dxy     :     0.002179
  3 O s       :     3.876062  s :     3.876062
      pz      :     1.690434  p :     4.573962
      px      :     1.251240
      py      :     1.632288
      dz2     :     0.001330  d :     0.018096
      dxz     :     0.006019
      dyz     :     0.003710
      dx2y2   :     0.001857
      dxy     :     0.005180
      f0      :     0.000246  f :     0.001345
      f+1     :     0.000038
      f-1     :     0.000068
      f+2     :     0.000229
      f-2     :     0.000527
      f+3     :     0.000138
      f-3     :     0.000099
  4 H s       :     0.638296  s :     0.638296
      pz      :     0.034766  p :     0.092262
      px      :     0.026605
      py      :     0.030891
      dz2     :     0.003373  d :     0.018421
      dxz     :     0.004004
      dyz     :     0.001895
      dx2y2   :     0.007737
      dxy     :     0.001410
  5 H s       :     0.661525  s :     0.661525
      pz      :     0.039128  p :     0.101636
      px      :     0.023513
      py      :     0.038996
      dz2     :     0.003968  d :     0.019058
      dxz     :     0.005157
      dyz     :     0.000697
      dx2y2   :     0.001695
      dxy     :     0.007542


                     *******************************
                     * LOEWDIN POPULATION ANALYSIS *
                     *******************************

------------------------
LOEWDIN FRAGMENT CHARGES
------------------------
 Fragment   0 :   0.001534
 Fragment   1 :  -0.001534

----------------------------
LOEWDIN FRAGMENT BOND ORDERS
----------------------------
                  0          1    
      0      18.221930   0.007854
      1       0.007854  18.226414

----------------------
LOEWDIN ATOMIC CHARGES
----------------------
   0 O :    1.000466
   1 H :   -0.475816
   2 H :   -0.523116
   3 O :    0.998877
   4 H :   -0.475627
   5 H :   -0.524784

-------------------------------
LOEWDIN REDUCED ORBITAL CHARGES
-------------------------------
  0 O s       :     3.017911  s :     3.017911
      pz      :     1.151904  p :     3.896929
      px      :     1.407963
      py      :     1.337061
      dz2     :     0.015889  d :     0.070175
      dxz     :     0.008386
      dyz     :     0.041095
      dx2y2   :     0.001677
      dxy     :     0.003129
      f0      :     0.000391  f :     0.014518
      f+1     :     0.001097
      f-1     :     0.006354
      f+2     :     0.002726
      f-2     :     0.003439
      f+3     :     0.000392
      f-3     :     0.000119
  1 H s       :     0.582785  s :     0.582785
      pz      :     0.175173  p :     0.532427
      px      :     0.169596
      py      :     0.187659
      dz2     :     0.105610  d :     0.360603
      dxz     :     0.069270
      dyz     :     0.082127
      dx2y2   :     0.052829
      dxy     :     0.050767
  2 H s       :     0.592677  s :     0.592677
      pz      :     0.203370  p :     0.561024
      px      :     0.165707
      py      :     0.191947
      dz2     :     0.112903  d :     0.369415
      dxz     :     0.088351
      dyz     :     0.099936
      dx2y2   :     0.033904
      dxy     :     0.034322
  3 O s       :     3.018692  s :     3.018692
      pz      :     1.380094  p :     3.897642
      px      :     1.165198
      py      :     1.352350
      dz2     :     0.004887  d :     0.070278
      dxz     :     0.022278
      dyz     :     0.004447
      dx2y2   :     0.016027
      dxy     :     0.022639
      f0      :     0.002226  f :     0.014512
      f+1     :     0.000015
      f-1     :     0.000080
      f+2     :     0.003068
      f-2     :     0.004812
      f+3     :     0.002429
      f-3     :     0.001881
  4 H s       :     0.581586  s :     0.581586
      pz      :     0.171103  p :     0.533174
      px      :     0.163643
      py      :     0.198428
      dz2     :     0.057548  d :     0.360866
      dxz     :     0.059728
      dyz     :     0.062037
      dx2y2   :     0.107837
      dxy     :     0.073715
  5 H s       :     0.593515  s :     0.593515
      pz      :     0.184160  p :     0.562205
      px      :     0.214892
      py      :     0.163153
      dz2     :     0.062596  d :     0.369064
      dxz     :     0.101958
      dyz     :     0.022359
      dx2y2   :     0.077390
      dxy     :     0.104762


                      *****************************
                      * MAYER POPULATION ANALYSIS *
                      *****************************

  NA   - Mulliken gross atomic population
  ZA   - Total nuclear charge
  QA   - Mulliken gross atomic charge
  VA   - Mayer's total valence
  BVA  - Mayer's bonded valence
  FA   - Mayer's free valence

  ATOM       NA         ZA         QA         VA         BVA        FA
  0 O      8.4667     8.0000    -0.4667     1.9800     1.9800    -0.0000
  1 H      0.7571     1.0000     0.2429     1.0175     1.0175    -0.0000
  2 H      0.7756     1.0000     0.2244     1.0328     1.0328    -0.0000
  3 O      8.4695     8.0000    -0.4695     1.9731     1.9731    -0.0000
  4 H      0.7490     1.0000     0.2510     1.0093     1.0093    -0.0000
  5 H      0.7822     1.0000     0.2178     1.0406     1.0406    -0.0000

  Mayer bond orders larger than 0.100000
B(  0-O ,  1-H ) :   0.9818 B(  0-O ,  2-H ) :   0.9977 B(  3-O ,  4-H ) :   0.9706 
B(  3-O ,  5-H ) :   1.0034 

-------
TIMINGS
-------

Total SCF time: 0 days 0 hours 0 min 2 sec 

Total time                  ....       2.276 sec
Sum of individual times     ....       3.348 sec  (147.1%)

Fock matrix formation       ....       3.022 sec  (132.8%)
  Split-RI-J                ....       0.395 sec  ( 13.1% of F)
  Chain of spheres X        ....       1.366 sec  ( 45.2% of F)
Diagonalization             ....       0.007 sec  (  0.3%)
Density matrix formation    ....       0.003 sec  (  0.1%)
Population analysis         ....       0.009 sec  (  0.4%)
Initial guess               ....       0.008 sec  (  0.4%)
Orbital Transformation      ....       0.000 sec  (  0.0%)
Orbital Orthonormalization  ....       0.003 sec  (  0.1%)
DIIS solution               ....       0.004 sec  (  0.2%)
SOSCF solution              ....       0.038 sec  (  1.7%)

Maximum memory used throughout the entire SCF-calculation: 73.3 MB


           ************************************************************
           *        Program running with 16 parallel MPI-processes    *
           *              working on a common directory               *
           ************************************************************


--------------------------------------------------------------------------------
                             ORCA-MATRIX DRIVEN CI
--------------------------------------------------------------------------------


Wavefunction type
-----------------
Correlation treatment                      ...      CCSD     
Single excitations                         ... ON
Orbital optimization                       ... OFF
Calculation of Z vector                    ... OFF
Calculation of Brueckner orbitals          ... OFF
Perturbative triple excitations            ... ON
Calculation of F12 correction              ... OFF
Frozen core treatment                      ... chemical core (4 el)
Reference Wavefunction                     ... RHF
  Internal Orbitals:     2 ...    9 (  8 MO's/ 16 electrons)
  Virtual  Orbitals:    10 ...  183 (174 MO's              )
Number of AO's                             ...    184
Number of electrons                        ...     20
Number of correlated electrons             ...     16

Algorithmic settings
--------------------
Integral transformation                    ... All integrals via the RI transformation
K(C) Formation                             ... RI-DLPNO
   PNO-Integral Storage                    ... ON DISK
   PNO occupation number cut-off           ... 1.000e-07
   Singles PNO occupation number cut-off   ... 3.000e-09
   PNO Mulliken prescreening cut-off       ... 1.000e-03
   Domain cut-off (Mulliken population)    ... 1.000e-03
   PNO Normalization                       ...    1
Maximum number of iterations               ...        50
Convergence tolerance (max. residuum)      ... 1.000e-06
Level shift for amplitude update           ... 2.000e-01
Maximum number of DIIS vectors             ...         7
DIIS turned on at iteration                ...         0
Damping before turning on DIIS             ...     0.500
Damping after turning on DIIS              ...     0.000
Pair specific amplitude update             ... OFF
Natural orbital iterations                 ... OFF
Perturbative natural orbital generation    ... OFF
Printlevel                                 ... 3

Singles Fock matrix elements calculated using PNOs.

Memory handling:
----------------
Maximum memory for working arrays          ...   4000 MB
Data storage in matrix containers          ... UNCOMPRESSED
Data type for integral storage             ... DOUBLE
In-Core Storage of quantities:
   Amplitudes+Sigma Vector      ... NO
   J+K operators                ... NO
   DIIS vectors                 ... NO
   3-external integrals         ... NO
   4-external integrals         ... NO

Localization treatment:
-----------------------
Localization option                        ...    6
Localization threshhold                    ... -1.0e+00
Using relative localization threshhold     ... 1.0e-08
Neglect threshold for strong pairs         ... 1.000e-05 Eh
Prescreening threshold for very weak pairs ... 1.000e-07 Eh

Initializing the integral package          ... done
Localizing the valence orbitals
Localizing the valence orbitals
------------------------------------------------------------------------------
                           ORCA ORBITAL LOCALIZATION
------------------------------------------------------------------------------

Input orbitals are from                  ... frag54.gbw
Output orbitals are to                   ... frag54.loc
Max. number of iterations                ... 128
Localizations seeded randomly            ... off
Convergence tolerance                    ... 2.000e-07
Using relative localization threshhold   ... 1.000e-08
Threshold for strong local MOs           ... 9.500e-01
Threshold for bond MOs                   ... 8.500e-01
Operator                                 ... 0
Orbital range for localization           ... 2 to 9
Localization criterion                   ... FOSTER-BOYS (AUGMENTED HESSIAN)
Doing the dipole integrals     ... o.k.
Initial value of the localization sum :   290.269615
ITERATION   0 : L=  293.5861563759 DL=  3.32e+00 (AVERGE_DL)=    0.3441626142 
ITERATION   1 : L=  294.3948152749 DL=  8.09e-01 (AVERGE_DL)=    0.1699431522 
ITERATION   2 : L=  294.6830160652 DL=  2.88e-01 (AVERGE_DL)=    0.1014538583 
ITERATION   3 : L=  294.6930830798 DL=  1.01e-02 (AVERGE_DL)=    0.0189614408 
ITERATION   4 : L=  294.6939260627 DL=  8.43e-04 (AVERGE_DL)=    0.0054869417 
ITERATION   5 : L=  294.6940147107 DL=  8.86e-05 (AVERGE_DL)=    0.0017793262 
ITERATION   6 : L=  294.6940227878 DL=  8.08e-06 (AVERGE_DL)=    0.0005370913 
ITERATION   7 : L=  294.6940235360 DL=  7.48e-07 (AVERGE_DL)=    0.0001634700 
LOCALIZATION SUM CONVERGED

------------------------------------------------------
AUGMENTED HESSIAN OPTIMIZATION OF FOSTER-BOYS ORBITALS
------------------------------------------------------

Spin operator:           0
Orbital window:          2 to 9
Number of iterations:    128
Gradient tolerance:      2.000e-07
Number of pairs:         28
Davidson threshold:      2000
Diagonalization method:  LAPACK
Iter:    0   L: 294.6940235360   Grad. norm: 8.397635e-04
   *** Likely close to a maximum now. ***
       Augmented Hessian eigenvalues:  1.52e-07 -1.28e+00 -1.29e+00 -3.20e+00 ... 
Iter:    1   L: 294.6940236118   Grad. norm: 5.248755e-08
LOCALIZATION HAS CONVERGED.

Eigenvalues of the Hessian:
  0 -1.278e+00
  1 -1.289e+00
  2 -3.201e+00
  3 -3.211e+00
  4 -4.685e+00
  5 -4.693e+00
  6 -5.333e+00
  7 -5.344e+00
  8 -7.195e+00
  9 -7.204e+00
    ...


--------------------------------------------------------------------------------
                    LOCALIZED MOLECULAR ORBITAL COMPOSITIONS
--------------------------------------------------------------------------------

The Mulliken populations for each LMO on each atom are computed
The LMO`s will be ordered according to atom index and type
  (A) Strongly localized MO`s have populations of >=0.950 on one atom
  (B) Two center bond orbitals have populations of >=0.850 on two atoms
  (C) Other MO`s are considered to be `delocalized`

FOUND  -   4 strongly local MO`s
       -   4 two center bond MO`s
       -   0 significantly delocalized MO`s

Rather strongly localized orbitals:
MO   5:   3O  -   1.001561
MO   4:   3O  -   1.002684
MO   3:   0O  -   1.003968
MO   2:   0O  -   0.996983
Bond-like localized orbitals:
MO   9:   5H  -   0.385841  and   3O  -   0.608311
MO   8:   4H  -   0.371724  and   3O  -   0.623017
MO   7:   2H  -   0.383604  and   0O  -   0.612227
MO   6:   1H  -   0.374927  and   0O  -   0.620990
Localized MO's were stored in: frag54.loc

Localizing the core orbitals
------------------------------------------------------------------------------
                           ORCA ORBITAL LOCALIZATION
------------------------------------------------------------------------------

Input orbitals are from                  ... frag54.loc
Output orbitals are to                   ... frag54.loc
Max. number of iterations                ... 128
Localizations seeded randomly            ... off
Convergence tolerance                    ... 2.000e-07
Using relative localization threshhold   ... 1.000e-08
Threshold for strong local MOs           ... 9.500e-01
Threshold for bond MOs                   ... 8.500e-01
Operator                                 ... 0
Orbital range for localization           ... 0 to 1
Localization criterion                   ... FOSTER-BOYS (AUGMENTED HESSIAN)
Doing the dipole integrals     ... o.k.
Initial value of the localization sum :    72.180828
ITERATION   0 : L=   72.1808283448 DL=  0.00e+00 (AVERGE_DL)=    0.0000000000 
LOCALIZATION SUM CONVERGED

------------------------------------------------------
AUGMENTED HESSIAN OPTIMIZATION OF FOSTER-BOYS ORBITALS
------------------------------------------------------

Spin operator:           0
Orbital window:          0 to 1
Number of iterations:    128
Gradient tolerance:      2.000e-07
Number of pairs:         1
Davidson threshold:      2000
Diagonalization method:  LAPACK
Iter:    0   L: 72.1808283448   Grad. norm: 2.353839e-04
   *** Likely close to a maximum now. ***
       Augmented Hessian eigenvalues:  1.87e-10 -2.96e+02
Iter:    1   L: 72.1808283449   Grad. norm: 6.326924e-16
LOCALIZATION HAS CONVERGED.

Eigenvalues of the Hessian:
  0 -2.960e+02


--------------------------------------------------------------------------------
                    LOCALIZED MOLECULAR ORBITAL COMPOSITIONS
--------------------------------------------------------------------------------

The Mulliken populations for each LMO on each atom are computed
The LMO`s will be ordered according to atom index and type
  (A) Strongly localized MO`s have populations of >=0.950 on one atom
  (B) Two center bond orbitals have populations of >=0.850 on two atoms
  (C) Other MO`s are considered to be `delocalized`

FOUND  -   2 strongly local MO`s
       -   0 two center bond MO`s
       -   0 significantly delocalized MO`s

Rather strongly localized orbitals:
MO   1:   3O  -   0.999348
MO   0:   0O  -   0.999270
Localized MO's were stored in: frag54.loc

Warning: reference  - re-canonicalizations have been set to INT 1 VIRT 1
Warning: internal orbitals are localized - no re-canonicalization of internal orbitals
Warning: UsePNO is turned on - no re-canonicalization of internal and virtual orbitals

--------------------------
CLOSED-SHELL FOCK OPERATOR
--------------------------

Restoring SHARK [2] ... ok
Entering RIJCOSX section for the Fock matrix
Trying to retrieve the full J-matrix              ... done
Updating the Fock matrix                          ... done
Making the frozen core Coulomb matrix             ... SHARKdone
Retrieving the full K-matrix                      ... done
Calculating the frozen core K-matrix              ... done
Updating the Fock matrix                          ... done
Time needed for Fock operator              ...            0.437 sec
Reference energy                           ...   -152.119593002

--------------
DLPNO SETTINGS (2015 fully linear scaling implementation)
--------------

TCutMKN:           1.000e-03
TCutPAO:           1.000e-03
TCutPNO:           1.000e-07
TCutPNOSingles:    3.000e-09
TCutEN:            9.700e-01
TCutPAOExt:        1.000e-01
TCutPairs:         1.000e-05
TCutPre:           1.000e-07
TCutOSV:           1.000e-06
TCutDOij:          1.000e-05
TCutDO:            5.000e-03
TCutC:             1.000e-04
TCutCPAO:          1.000e-03
TCutCMO:           1.000e-03
TScaleDOMP2PreScr: 2.000e+00
TScaleMKNMP2PreScr:1.000e+01
TScalePNOMP2PreScr:1.000e+00
PAO overlap thresh 1.000e-08
Using PNOs for Singles Fock computation
Use new domains
Use fully linear algorithm
TCutTNO:           1.000e-09
TCutMP2Pairs:      1.000e-06
TCutDOStrong:      1.000e-02
TCutDOWeak:        2.000e-02
TCutMKNStrong:     1.000e-02
TCutMKNWeak:       1.000e-01
NTCutTNO:          1

--------------------------
Mulliken population of the LMOs            ... ok
Performing proximity check                 ... 
 found 2 problematic atoms
   => In all likelyhood your results will be entirely fine!
   => In case you don't want to trust it, decrease TCutMKN to below 0.00019763.
   => but note that this is probably not necessary but will increase execution time
Calculating differential overlap integrals ... ok

--------------------------
ELECTRON PAIR PRESCREENING
--------------------------

Dipole-based pair screening          .... used

   TCutDOij = 1.000000e-05
   TCutPre  = 1.000000e-07
   .... Finished loop over pairs
Total time spent in the prescreening                  ...     0.000 sec
Time for pair-prescreening                            ...     0.000 sec
Time for pairlist organization                        ...     0.000 sec
Number of pairs skipped by pre-screening              ... 0
sum of pair energies estimated for screened out pairs ...       0.000000000000 Eh
Thresholds for map construction and integral transformation for crude MP2:
   TCutMKN                    ...     1.0e-02
   TCutDO                     ...     1.0e-02
   TCutPairs                  ...     1.0e-05
   TCutPNO_CrudeMP2           ...     1.0e-07
   TCutPNOSingles_CrudeMP2    ...     3.0e-09
--------------------------------
LOCAL RI TRANSFORMATION (IAVPAO)
--------------------------------

Orbital window:       2 to 9
Number of PAOs:     184
Basis functions:    184 (64 shells)
Aux. functions:    1000 (248 shells)
Use SHARK:           on

Processing maps (0.0 sec)
Average map sizes:
   Aux shells -> MOs               8.0
   Aux shells -> PAOs            184.0
   MOs        -> AO shells        61.1
   PAOs       -> AO shells        64.0

Calculating integrals (0.1 sec, 11.242 MB)
Sorting integrals (0.0 sec, 11.231 MB)
Total time for the integral transformation: 0.1 sec
--------------------------------
INITIAL GUESS AND PNO GENERATION
--------------------------------

Populations of internal orbitals onto Fragments:
   2:      1.000    0.000  assigned to fragment   1
   3:      1.008    0.000  assigned to fragment   1
   4:      0.000    1.006  assigned to fragment   2
   5:      0.000    1.003  assigned to fragment   2
   6:      1.000    0.000  assigned to fragment   1
   7:      1.000    0.000  assigned to fragment   1
   8:      0.000    1.000  assigned to fragment   2
   9:      0.000    1.000  assigned to fragment   2

Summary assignment:
   4 orbitals assigned to fragment   1
   4 orbitals assigned to fragment   2

PNO truncation parameters                   .... 
    PAOOverlapThresh   =        1.000e-08

    TCutPairs          =        1.000e-05
    TCutPNO            =        1.000e-07
    TCutPNOSingles     =        3.000e-09
    TCutMP2Pairs       =        1.000e-06
    TCutMKN            =        1.000e-02
    TCutDO             =        1.000e-02

Pair selection                          .... not used
Type of local MP2 treatment                 .... semi-local MP2
Strategy for PNO selection                  .... occupation number selection
Pair density normalization                  .... MP2 norm
Spin component scaling                      .... not used

   .... Finished loop over pairs
Making pair pair interaction lists          ... 
Pair pair interaction statistics
Nr. of pairs:                        24
Nr. of Singles:                       8
Average (per pair domain)               (Total):
Atoms:                              5.5 (6)
PNOs:                               4.9
PAOs:                  172.5 (184)
Aux functions:                    406.0 (1000)
AuxAtoms:                           1.9 (6)
EXT1 basis functions:             184.0 (184)
Interacting Pairs:                  2.0 (24)
Interacting Pairs - Singles:        8.0 (8)
Average (per Single domain):
Atoms (Singles):                    5.1 (6)
PNOs (Singles):                    73.5
Basis functions (Singles):        163.9 (184)
Interacting Singles - Singles:      8.0 (8)
Interacting Singles - Pairs:       24.0 (24)
done

                       ===========================
                         24 OF   36 PAIRS ARE KEPT CCSD PAIRS
                         12 OF   36 PAIRS ARE KEPT MP2 PAIRS FOR (T)
                          0 OF   36 PAIRS ARE SKIPPED
                       ===========================

Total time spent in the initial guess                 ...     0.094 sec
Pair domain construction                              ...     0.000 sec
Time for calculating MP2 Guess in PAOs                ...     0.031 sec
     Time for Local metric generation                 ...     0.000 sec
     Time for Local Kij generation                    ...     0.011 sec
     Time for Local MP2 calculation                   ...     0.000 sec
     Time for LMP2 iterations                         ...     0.000 sec
          prep and other time                         ...     0.000 sec
          Time for sigma                              ...     0.000 sec (    0.000 sec in k-loop)
          Time for DIIS                               ...     0.000 sec
          Time for Update                             ...     0.000 sec
      Time for LMP2 I/O                               ...     0.000 sec
      Time for Initial PNO                            ...     0.000 sec
Time for generating PNOs                              ...     0.004 sec
Time for pairlist organization                        ...     0.000 sec
Time for pair-pair interaction organization           ...     0.001 sec
Size of the domain VM**-1/2 file                      ...         0 MB
SL-MP2 correlation energy (all non-screened pairs)    ...      -0.522679352174 Eh

Initial PNO correlation energy                        ...      -0.522546325673 Eh
sum of pair energies prescreened and skipped MP2 pairs...       0.000000000000 Eh
sum of pair energies of crude MP2 skipped pairs only  ...       0.000000000000 Eh
sum of MP2 pair energies for pairs that were not kept ...      -0.000065569403 Eh
sum of PNO error estimates for the kept pairs         ...      -0.000067457098 Eh
                                                          --------------------
sum of all corrections                                         -0.000133026501
Initial total correlation energy                               -0.522679352174
Thresholds for map construction and integral transformation for fine MP2 and CCSD(T) calculation:
   TCutMKN   ...     1.0e-03
   TCutDO    ...     5.0e-03
   TCutPairs ...     1.0e-05
   TCutCMO   ...     1.0e-03
   TCutCPAO  ...     1.0e-03

Thresholds for map construction and integral transformation for strong Triples:
   TCutMKN   ...     1.0e-02
   TCutDO    ...     1.0e-02
   TCutCMO   ...     1.0e-03
   TCutCPAO  ...     1.0e-03

Thresholds for map construction and integral transformation for weak Triples:
   TCutMKN   ...     1.0e-01
   TCutDO    ...     2.0e-02
   TCutCMO   ...     1.0e-03
   TCutCPAO  ...     1.0e-03

--------------------------------
LOCAL RI TRANSFORMATION (IAVPAO)
--------------------------------

Orbital window:       2 to 9
Number of PAOs:     184
Basis functions:    184 (64 shells)
Aux. functions:    1000 (248 shells)
Use SHARK:           on

Processing maps (0.0 sec)
Average map sizes:
   Aux shells -> MOs               8.0
   Aux shells -> PAOs            184.0
   MOs        -> AO shells        61.1
   PAOs       -> AO shells        64.0

Calculating integrals (0.1 sec, 11.242 MB)
Sorting integrals (0.0 sec, 11.231 MB)
Total time for the integral transformation: 0.2 sec
--------------------------------
INITIAL GUESS AND PNO GENERATION
--------------------------------

Populations of internal orbitals onto Fragments:
   2:      1.000    0.000  assigned to fragment   1
   3:      1.008    0.000  assigned to fragment   1
   4:      0.000    1.006  assigned to fragment   2
   5:      0.000    1.003  assigned to fragment   2
   6:      1.000    0.000  assigned to fragment   1
   7:      1.000    0.000  assigned to fragment   1
   8:      0.000    1.000  assigned to fragment   2
   9:      0.000    1.000  assigned to fragment   2

Summary assignment:
   4 orbitals assigned to fragment   1
   4 orbitals assigned to fragment   2

PNO truncation parameters                   .... 
    ScaleTCutPNO       =        1.000e-02
    PAOOverlapThresh   =        1.000e-08

    TCutPairs          =        1.000e-05
    TCutPNO            =        1.000e-07
    TCutPNOSingles     =        3.000e-09
    TCutMP2Pairs       =        1.000e-06
    TCutMKN            =        1.000e-03
    TCutDO             =        5.000e-03

Pair selection                          .... not used
Type of local MP2 treatment                 .... full local PMP2
Strategy for PNO selection                  .... occupation number selection
Pair density normalization                  .... MP2 norm
Spin component scaling                      .... not used

PASS-1: Formation of initial guess LMP2 amplitudes
Initial amplitudes guess done. Entering LMP2 iteration loop:
   Max. no of iterations          ...  50
   Energy convergence tolerance   ...    1.0e-07
   Residual convergence tolerance ...    5.0e-07
   Fock matrix cutoff             ...    1.0e-05 Eh
   DIIS convergence acceleration parameters:
        Max # vectors in DIIS     ... 7
        Start iteration of DIIS   ... 0
        Levelshift                ... 2.000e-01
        Damping factor 1          ... 5.000e-01
        Damping factor 2          ... 1.000e+00
   L-MP2 PNO cut-off              ...   1.0e-09
   L-MP2 PNO cut-off (core)       ...   1.0e-11
504 of 504 terms in k-loop evaluated.

                           *** Turning on DIIS ***
LMP2-Iter=   0:  ELMP2= -0.532643896259  DE=   1.0e-02 RMAX=   4.9e-03
LMP2-Iter=   1:  ELMP2= -0.538049182420  DE=   5.4e-03 RMAX=   2.1e-03
LMP2-Iter=   2:  ELMP2= -0.538837527343  DE=   7.9e-04 RMAX=   3.9e-04
LMP2-Iter=   3:  ELMP2= -0.538941745711  DE=   1.0e-04 RMAX=   1.3e-04
LMP2-Iter=   4:  ELMP2= -0.538950666306  DE=   8.9e-06 RMAX=   2.0e-05
LMP2-Iter=   5:  ELMP2= -0.538950653339  DE=   1.3e-08 RMAX=   5.7e-06
LMP2-Iter=   6:  ELMP2= -0.538950612816  DE=   4.1e-08 RMAX=   7.0e-07
LMP2-Iter=   7:  ELMP2= -0.538950605172  DE=   7.6e-09 RMAX=   2.2e-07
LMP2-Iter=   8:  ELMP2= -0.538950608536  DE=   3.4e-09 RMAX=   2.4e-08 => CONVERGED
PASS-2: Formation of Pair natural orbitals
   .... Finished loop over pairs
Process  1:   (    4,     2):  97.553566048659 %
Process  1:   (    4,     3):  98.344784186720 %
Process  1:   (    4,     4):  99.994173769167 %
Process  1:   (    4):  99.999930497854 % (IJ)
Process  2:   (    5,     2):  98.570439561711 %
Process  2:   (    5,     3):  98.646227926298 %
Process  2:   (    5,     4):  99.996081101021 %
Process  3:   (    5,     5):  99.994171772514 %
Process  3:   (    6,     2):  99.995546976834 %
Process  3:   (    6,     3):  99.995566537732 %
Process  3:   (    5):  99.999928343737 % (IJ)
Process  4:   (    6,     4):  99.440352135474 %
Process  4:   (    6,     5):  99.772272396280 %
Process  4:   (    6,     6):  99.995651804922 %
Process  4:   (    6):  99.999915184763 % (IJ)
Process  5:   (    7,     2):  99.995638877101 %
Process  5:   (    7,     3):  99.994913768953 %
Process  5:   (    7,     4):  99.178514273173 %
Process  6:   (    7,     5):  99.567032660118 %
Process  6:   (    7,     6):  99.993780537809 %
Process  6:   (    7,     7):  99.995098023142 %
Process  6:   (    7):  99.999893396047 % (IJ)
Process  7:   (    8,     2):  98.630075267733 %
Process  7:   (    8,     3):  98.639016974723 %
Process  7:   (    8,     4):  99.995675048524 %
Process  8:   (    8,     5):  99.995655979413 %
Process  8:   (    8,     6):  99.331004221725 %
Process  8:   (    8,     7):  99.223326883409 %
Process  9:   (    8,     8):  99.995609376198 %
Process  9:   (    9,     2):  97.921996916583 %
Process  9:   (    9,     3):  98.780207268965 %
Process  9:   (    8):  99.999917323002 % (IJ)
Process 10:   (    9,     4):  99.995138416715 %
Process 10:   (    9,     5):  99.995118176914 %
Process 10:   (    9,     6):  99.628740516314 %
Process 11:   (    9,     7):  99.510009453442 %
Process 11:   (    9,     8):  99.993811513580 %
Process 11:   (    9,     9):  99.995131333531 %
Process 11:   (    9):  99.999900228933 % (IJ)

  - Occupation number analysis for DOUBLES-pairs:

   Orbital Indices     % trace(D) 
  -----------------------------------
Process  0:   (    2,     2):  99.994513628087 %
Process  0:   (    3,     2):  99.995508780200 %
Process  0:   (    3,     3):  99.994009001115 %

  - Occupation number analysis for SINGLES-pairs:

   Orbital Index       % trace(D) 
  -----------------------------------
Process  0:   (    2):  99.999893557835 % (IJ)
Process  0:   (    3):  99.999909271586 % (IJ)

 PNO Occupation Number Statistics: 
  | Av. % of trace(Dij) retained        ...  99.517732253189
  | sigma^2 in % of trace(Dij) retained ...   4.56e-01
  | Av. % of trace(Di) retained         ...  99.999910975470
  | sigma^2 in % of trace(Di) retained  ...   1.84e-10
 Distributions of % trace(Dij) recovered:
  |       >= 99.9  ...    20 ( 55.6 % of all pairs)
  |   [90.0, 99.0) ...     8 ( 22.2 % of all pairs)
  |   [99.0, 99.9) ...     8 ( 22.2 % of all pairs)
 Distributions of % trace(Di) recovered :
  |       >= 99.9  ...     8 (100.0 % of all I-pairs )

Making pair pair interaction lists          ... 
Pair pair interaction statistics
Nr. of pairs:                        24
Nr. of Singles:                       8
Average (per pair domain)               (Total):
Atoms:                              6.0 (6)
PNOs:                               5.0
PAOs:                  184.0 (184)
Aux functions:                    564.7 (1000)
AuxAtoms:                           3.3 (6)
EXT1 basis functions:             184.0 (184)
Interacting Pairs:                  2.0 (24)
Interacting Pairs - Singles:        8.0 (8)
Average (per Single domain):
Atoms (Singles):                    6.0 (6)
PNOs (Singles):                    76.5
Basis functions (Singles):        184.0 (184)
Interacting Singles - Singles:      8.0 (8)
Interacting Singles - Pairs:       24.0 (24)
done

                       ===========================
                         24 OF   36 PAIRS ARE KEPT
                       ===========================

Total time spent in the initial guess                 ...     0.405 sec
Pair domain construction                              ...     0.000 sec
Time for calculating MP2 Guess in PAOs                ...     0.074 sec
     Time for Local metric generation                 ...     0.000 sec
     Time for Local Kij generation                    ...     0.043 sec
     Time for Local MP2 calculation                   ...     0.001 sec
     Time for LMP2 iterations                         ...     0.184 sec
          prep and other time                         ...     0.002 sec
          Time for sigma                              ...     0.070 sec (    0.060 sec in k-loop)
          Time for DIIS                               ...     0.087 sec
          Time for Update                             ...     0.005 sec
      Time for LMP2 I/O                               ...     6.924 sec
      Time for Initial PNO                            ...     0.019 sec
Time for generating PNOs                              ...     0.002 sec
Time for pairlist organization                        ...     0.000 sec
Time for pair-pair interaction organization           ...     0.001 sec
Size of the domain VM**-1/2 file                      ...       167 MB
Size of the P2V_red file                              ...         1 MB
L-MP2 correlation energy (all non-screened pairs)     ...      -0.538950608536 Eh
L-MP2 PNO error correction                            ...      -0.000000750682 Eh
                                                          --------------------
Initial total L-MP2 energy (non-screened pairs)       ...      -0.538951359219 Eh

Initial PNO correlation energy                        ...      -0.538826846432 Eh
sum of pair energies estimated for screened out pairs ...       0.000000000000 Eh
sum of MP2 pair energies for pairs that were not kept ...      -0.000075440297 Eh
sum of PNO error estimates for the kept pairs         ...      -0.000069193876 Eh
                                                          --------------------
sum of all corrections                                         -0.000144634172
Initial total correlation energy                               -0.538971480604
Thresholds for map construction and integral transformation for fine MP2 and CCSD(T) calculation:
   TCutMKN   ...     1.0e-03
   TCutDO    ...     5.0e-03
   TCutPairs ...     1.0e-05
   TCutCMO   ...     1.0e-03
   TCutCPAO  ...     1.0e-03

Time for aux screen maps:            0.001
Time for maps after fine MP2:            0.003
-----------------------------
LOCAL RI TRANSFORMATION (IJV)
-----------------------------

Orbital window:       2 to 9
Basis functions:    184 (64 shells)
Aux. functions:    1000 (248 shells)
Use SHARK:           on

Processing maps (0.0 sec)
Average map sizes:
   Aux shells -> MOs(i)            7.5
   Aux shells -> MOs(j)            8.0
   MOs        -> AO shells        61.1

Calculating integrals (0.1 sec, 0.472 MB)
Sorting integrals (0.0 sec, 0.461 MB)
Total time for the integral transformation: 0.1 sec
--------------------------------
LOCAL RI TRANSFORMATION (VABPAO)
--------------------------------

Number of PAOs:     184
Basis functions:    184 (64 shells)
Aux. functions:    1000 (248 shells)
Use SHARK:           on

Processing maps (0.0 sec)
Average map sizes:
   Aux shells -> PAOs            184.0
   PAOs       -> AO shells        64.0

Calculating integrals (0.2 sec, 258.312 MB)
Finished
Precomputing pair/pair interactions        ... 

-------------------------------------
Pair Pair Term precalculation with     
RI-(ij|mn) and (im|jn) transformation  
ON THE FLY                             
-------------------------------------

Max core memory to be used                    ...   4000 MB
Number of batches needed                      ...      1 
Average Memory used per batch                 ...      0 MB
Pair Pair terms per batch                     ...      0 
Total number of pairs                         ...     24 
Memory needed for all IJPairs                 ...      0 MB
   IBatch   1 (of   1)              ... done (    0.954 sec)
Total EXT                           ...           0.954 sec

Detailed timings: 
Reading/generating VMAT                    ...          0.002 sec
Reading 3-index integrals                  ...          0.051 sec
Sorting of data                            ...          0.293 sec
Get Pair1 ...          0.000 sec
Get Pair2 ...          0.001 sec
Get Pair3 ...          0.000 sec
Get Pair4 ...          0.000 sec
Get Pair5 ...          0.000 sec
Get Pair6 ...          0.000 sec
Orthogonalization of the 3-index integrals ...          0.022 sec
Multipl. of 3-index integrals              ...          0.485 sec
GetNewMat              ...          0.011 sec
Generating IJMN (orthog. + mult.)          ...          0.775 sec
Generating IJMN (orthog. + mult.) 1         ...          0.738 sec
Generating IJMN (orthog. + mult.) 2         ...          0.000 sec
Generating IJMN (orthog. + mult.) 3         ...          0.015 sec
Generating IJMN (orthog. + mult.) 4         ...          0.022 sec
Generating IMJN (orthog. + mult.)          ...          0.043 sec

done (    0.968 sec)
---------------------
RI-PNO TRANSFORMATION
---------------------

Total Number of PNOs                   ...  1242
Average number of PNOs per pair        ...    51
Maximal number of PNOs per pair        ...    64
   #pairs with  1 -  5 PNOs   :    0
   #pairs with  6 - 10 PNOs   :    4
   #pairs with 11 - 15 PNOs   :    0
   #pairs with 16 - 20 PNOs   :    0
   #pairs with 21 - 25 PNOs   :    0
   #pairs with 26 - 30 PNOs   :    0
   #pairs with 31 - 35 PNOs   :    0
   #pairs with 36 - 40 PNOs   :    0
   #pairs with 41 - 45 PNOs   :    0
   #pairs with 46 - 50 PNOs   :    0
   #pairs with 56 - 60 PNOs   :    8
   #pairs with 61 - 65 PNOs   :   12

Generation of (ij|ab)[P] integrals            ... on
Generation of (ia|bc)[P],(ja|bc)[P] integrals ... on
Storage of 3 and 4 external integrals         ... on
Generation of ALL (ka|bc)[P] integrals        ... on
Keep RI integrals in memory                   ... off
PNO Integral generation
Max core memory to be used                    ...   4000 MB
Number of batches needed                      ...      1 
Memory available for IJPairs                  ...   3940 MB
Memory needed per IJPair                      ...     21 MB
Total number of pairs                         ...     24 
Memory needed for all IJPairs                 ...    510 MB

Ibatch:  1 (of  1)
Starting 2-4 index PNO integral generation ... done

Timings:
Total PNO integral transformation time     ...          1.646 sec
Reading/generating VMAT                    ...          0.001 sec
Reading 3-index integrals                  ...          0.042 sec
Sorting of data (for reading)              ...          0.034 sec
      Sorting of data (for reading) 1      ...          0.000 sec
[...]

FRAGMENT    1 =  -0.273925635186 Eh ...   

----------------------------------------------------------------------------------------------------------------------------------------
    i   j  type :        EP         (%)         Direct-            Single             Double         PNO in Mulliken                   
                                           Double Excitation     Charge-Transfer    Charge-Transfer  population range                   
                                                                                                      <0.7   >0.7                       
----------------------------------------------------------------------------------------------------------------------------------------
    6     6  :     -0.031971571 ( 11.67)      -0.031971571      0.000000000      0.000000000       0      57
    7     7  :     -0.031559211 ( 11.52)      -0.031559211      0.000000000      0.000000000       0      56
    3     2  :     -0.029695138 ( 10.84)      -0.029615244     -0.000079458     -0.000000435       1      62
    6     2  :     -0.026427346 (  9.65)      -0.026427346      0.000000000      0.000000000       0      64
    6     3  :     -0.026423312 (  9.65)      -0.026423312      0.000000000      0.000000000       0      64
    2     2  :     -0.026356749 (  9.62)      -0.026356749      0.000000000      0.000000000       0      57
    3     3  :     -0.026346930 (  9.62)      -0.026346930      0.000000000      0.000000000       0      57
    7     2  :     -0.026276653 (  9.59)      -0.026276653      0.000000000      0.000000000       0      64
    7     3  :     -0.026271781 (  9.59)      -0.026271781      0.000000000      0.000000000       0      63
    7     6  :     -0.022596943 (  8.25)      -0.022596943      0.000000000      0.000000000       0      64

Overall summary of excitation mechanisms for this fragment:
  Total direct double excitations (i->a(ij))(j->b(ij))                      -0.273845741 (99.971 per cent)
  Total single charge-transfer    (i->a(ij))(j->b(X)) & (i->a(X))(j->b(ij)) -0.000079458 ( 0.029 per cent)
  Total double charge transfer    (i->a(X))(j->b(X))                        -0.000000435 ( 0.000 per cent)
                                                       -----------------------------
  Sum                                                  -0.273925635
  Consistency check                                    -0.273925635
 done 
 
FRAGMENT    2 =  -0.273957987386 Eh ...   

----------------------------------------------------------------------------------------------------------------------------------------
    i   j  type :        EP         (%)         Direct-            Single             Double         PNO in Mulliken                   
                                           Double Excitation     Charge-Transfer    Charge-Transfer  population range                   
                                                                                                      <0.7   >0.7                       
----------------------------------------------------------------------------------------------------------------------------------------
    8     8  :     -0.031952165 ( 11.66)      -0.031952165      0.000000000      0.000000000       0      57
    9     9  :     -0.031575097 ( 11.53)      -0.031575097      0.000000000      0.000000000       0      56
    5     4  :     -0.029694033 ( 10.84)      -0.029694033      0.000000000      0.000000000       0      63
    8     5  :     -0.026428540 (  9.65)      -0.026428540      0.000000000      0.000000000       0      64
    8     4  :     -0.026426854 (  9.65)      -0.026426854      0.000000000      0.000000000       0      64
    5     5  :     -0.026347257 (  9.62)      -0.026347257      0.000000000      0.000000000       0      57
    4     4  :     -0.026346716 (  9.62)      -0.026346716      0.000000000      0.000000000       0      57
    9     4  :     -0.026290433 (  9.60)      -0.026290433      0.000000000      0.000000000       0      63
    9     5  :     -0.026289513 (  9.60)      -0.026289513      0.000000000      0.000000000       0      63
    9     8  :     -0.022607379 (  8.25)      -0.022607379      0.000000000      0.000000000       0      64

Overall summary of excitation mechanisms for this fragment:
  Total direct double excitations (i->a(ij))(j->b(ij))                      -0.273957987 (100.000 per cent)
  Total single charge-transfer    (i->a(ij))(j->b(X)) & (i->a(X))(j->b(ij))  0.000000000 (-0.000 per cent)
  Total double charge transfer    (i->a(X))(j->b(X))                         0.000000000 (-0.000 per cent)
                                                       -----------------------------
  Sum                                                  -0.273957987
  Consistency check                                    -0.273957987
 done 
 
 

Decomposition of the inter-fragments strong pairs energies .. 

FRAGMENTS    2,1 =  -0.000073501090 Eh ...   

------------------------------------------------------------------------------------------------------------------------------------------------
    i   j  type :         EP        (%)         Dipole-            Cross              Charge        Charge          PNO in Mulliken            
                                                 Dipole           Excitation          Transfer      Transfer        population range            
                                                                                                                      <0.7  >0.7                
------------------------------------------------------------------------------------------------------------------------------------------------
    8     2  :     -0.000034251 ( 46.60)      -0.000033592     -0.000000156     -0.000000329     -0.000000173       0       6
    4     2  :     -0.000013423 ( 18.26)      -0.000013178     -0.000000075     -0.000000089     -0.000000081       0       6
    5     2  :     -0.000013368 ( 18.19)      -0.000012988     -0.000000042     -0.000000320     -0.000000018       0       7
    8     3  :     -0.000012460 ( 16.95)      -0.000012303     -0.000000049     -0.000000085     -0.000000023       0       6
----------------------------------------------------------------------------------------------------------------------------------------------------------
                   -0.000073501               -0.000072061     -0.000000323     -0.000000823     -0.000000295 
                                                 ( 98.04%)        (  0.44%)        (  1.12%)        (  0.40%)
----------------------------------------------------------------------------------------------------------------------------------------------------------

Overall summary of excitation mechanisms for this fragment pair:
  Total local dipole excitations    (i->a(i))(j->b(j)) -0.000072061 (98.041 per cent)
  Total Cross excitations           (i->a(j))(j->b(i)) -0.000000323 ( 0.439 per cent)
  Total Charge transfer excitations (i->a(i))(j->b(i)) -0.000000823 ( 1.119 per cent)
  Total Charge transfer excitations (i->a(j))(j->b(j)) -0.000000295 ( 0.401 per cent)
                                                       -----------------------------
  Sum                                                  -0.000073501
  Consistency check                                    -0.000073501
 done 
 
 
Summary Strong Pairs Energy Decomposition    
 
Intra fragment contributions: 
INTRA Fragment 1                       -0.273845741 
INTRA Fragment 2                       -0.273957987 

Charge transfer contributions: 
Charge Transfer 1 to 2                 -0.000080717 
Charge Transfer 2 to 1                 -0.000000295 

Dispersion contributions: 
Dispersion  2,1                        -0.000072384 

Singles contributions:                   
Singles energy                         -0.000004455 
 

------------------------------------------------- 
FINAL SUMMARY DLPNO-CCSD ENERGY DECOMPOSITION (Eh)
------------------------------------------------- 
 
Intrafragment REF. energy:                   
Intra fragment   1 (REF.)              -76.058989676     
Intra fragment   2 (REF.)              -76.058940306     

Interaction of fragments  2 and  1:  
Electrostatics (REF.)                  -0.001635131 
Exchange (REF.)                        -0.000027889 
Dispersion (strong pairs)              -0.000072384 
Dispersion (weak pairs)                -0.000077488 

Sum of non dispersive correlation terms: 
Non dispersion (strong pairs)          -0.547889195  
Non dispersion (weak pairs)            -0.000067146  

#Time for LED analysis ..       1.6 (sec)



--------------------------------------------------------------------------------
                                    TIMINGS
--------------------------------------------------------------------------------


Total execution time                   ...       29.054 sec

Localization of occupied MO's          ...        0.252 sec (  0.9%)
Fock Matrix Formation                  ...        0.437 sec (  1.5%)
Global overlap, Fock, MKN matrices     ...        0.169 sec (  0.6%)
Differential overlap integrals         ...        0.611 sec (  2.1%)
Organizing maps                        ...        0.007 sec (  0.0%)
RI 3-index integral generations        ...        0.615 sec (  2.1%)
RI-PNO integral transformation         ...        2.655 sec (  9.1%)
Initial Guess                          ...        0.504 sec (  1.7%)
DIIS Solver                            ...        0.150 sec (  0.5%)
State Vector Update                    ...        0.003 sec (  0.0%)
Sigma-vector construction              ...       19.088 sec ( 65.7%)
  <D|H|D>(0-ext)                       ...        0.051 sec (  0.3% of sigma)
  <D|H|D>(2-ext Fock)                  ...        0.002 sec (  0.0% of sigma)
  <D|H|D>(2-ext)                       ...        0.226 sec (  1.2% of sigma)
  <D|H|D>(4-ext)                       ...        4.187 sec ( 21.9% of sigma)
  <D|H|D>(4-ext-corr)                  ...       12.572 sec ( 65.9% of sigma)
  CCSD doubles correction              ...        0.008 sec (  0.0% of sigma)
  <S|H|S>                              ...        0.109 sec (  0.6% of sigma)
  <S|H|D>(1-ext)                       ...        0.012 sec (  0.1% of sigma)
  <S|H|D>(3-ext)                       ...        0.067 sec (  0.3% of sigma)
  Fock-dressing                        ...        0.676 sec (  3.5% of sigma)
  Singles amplitudes                   ...        0.045 sec (  0.2% of sigma)
  (ik|jl)-dressing                     ...        0.044 sec (  0.2% of sigma)
  (ij|ab),(ia|jb)-dressing             ...        0.120 sec (  0.6% of sigma)
  Pair energies                        ...        0.002 sec (  0.0% of sigma)
Total Time for computing (T)           ...        2.923 sec ( 10.1% of ALL)
Local Energy Decomposition             ...        1.561 sec (  5.4% of ALL)


Maximum memory used throughout the entire MDCI-calculation: 366.6 MB

-------------------------   --------------------
FINAL SINGLE POINT ENERGY      -152.685214285466
-------------------------   --------------------


                            ***************************************
                            *     ORCA property calculations      *
                            ***************************************


  WARNING: The energy has been calculated at the MDCI level but the densities
           used in the property calculations are still SCF densities
           MDCI response densities have not been calculated 
           use %mdci Density linearized end
           or  %mdci Density unrelaxed end
           or  %mdci Density orbopt end

                                    ---------------------
                                    Active property flags
                                    ---------------------
   (+) Dipole Moment


------------------------------------------------------------------------------
                       ORCA ELECTRIC PROPERTIES CALCULATION
------------------------------------------------------------------------------

Dipole Moment Calculation                       ... on
Quadrupole Moment Calculation                   ... off
Polarizability Calculation                      ... off
GBWName                                         ... frag54.gbw
Electron density                                ... frag54.scfp
The origin for moment calculation is the CENTER OF MASS  = ( 2.367487,  2.967643 -1.789868)

-------------
DIPOLE MOMENT
-------------
                                X             Y             Z
Electronic contribution:      0.02095       0.04227       0.14296
Nuclear contribution   :     -0.20581      -0.20783      -0.74187
                        -----------------------------------------
Total Dipole Moment    :     -0.18486      -0.16556      -0.59891
                        -----------------------------------------
Magnitude (a.u.)       :      0.64829
Magnitude (Debye)      :      1.64782



--------------------
Rotational spectrum 
--------------------
 
Rotational constants in cm-1:     6.702298     0.089110     0.088686 
Rotational constants in MHz : 200929.839879  2671.446001  2658.749403 

 Dipole components along the rotational axes: 
x,y,z [a.u.] :    -0.357627    -0.399722    -0.364146 
x,y,z [Debye]:    -0.909016    -1.016014    -0.925585 

 

--------------------------------
SUGGESTED CITATIONS FOR THIS RUN
--------------------------------

Below you find a list of papers that are relevant to this ORCA run
We neither can nor want to force you to cite these paper, but we appreciate if you do
You receive ORCA, which is the product of a lot of hard work by many enthusiastic individuals, for free
The *only* thing we kindly ask in return is that you cite our papers,
We deeply appreciate it, if you show your appreciation for ORCA but *not* just citing the generic ORCA reference.

Please note that relegating all ORCA citations to the supporting information does *not* help us.
SI sections are not index - citations you put there will not count into our citation statistics
But we need these citations in order to attract the funding ressources that allow us to do what we are doing

Therefore, please consider citing at least a few of the papers listed below, if you are a happy ORCA user

In addition to the list printed below, the program has created the file frag54.bibtex that contains the list in bibtex format
In this format, you can import it easily in all common literature databanks and citation aid programs


List of essential papers. We consider these as the minimum necessary citations

  1. Neese,F.
     Software update: the ORCA program system, version 5.0
     WIRES Comput. Molec. Sci., 2022 12(1)e1606
     doi.org/10.1002/wcms.1606

List of papers to cite with high priority. The work reported in these papers was absolutely
necessary for this run to complete.
Our perspective: the developers of density functionals and basis sets usually get cited in chemistry papers
Good! But without the algorithms to do something with them, the functionals or basis sets would not do anything.
Hence, in our opinion, the algorithm design and method developments papers are equally worthy of getting cited

  1. Neese,F.
     An improvement of the resolution of the identity approximation for the formation of the Coulomb matrix
     J. Comp. Chem., 2003 24(14)1740-1747
     doi.org/10.1002/jcc.10318
  2. Neese,F.; Wennmohs,F.; Hansen,A.; Becker,U.
     Efficient, approximate and parallel Hartree-Fock and hybrid DFT calculations. A 'chain-of-spheres' algorithm for the Hartree-Fock exchange
     Chem. Phys., 2009 356(1-3)98-109
     doi.org/10.1016/j.chemphys.2008.10.036
  3. Neese,F.; Hansen,A.; Liakos,D.G.
     Efficient and accurate approximations to the local coupled cluster singles doubles method using a truncated pair natural orbital basis
     J. Chem. Phys., 2009 131 064103
     doi.org/10.1063/1.3173827
  4. Neese,F.; Wennmohs,F.; Hansen,A.
     Efficient and accurate local approximations to coupled-electron pair approaches: An attempt to revive the pair natural orbital method
     J. Chem. Phys., 2009 130 114108
     doi.org/10.1063/1.3086717
  5. Riplinger,C.; Neese,F.
     An efficient and near linear scaling pair natural orbital based local coupled cluster method
     J. Chem. Phys., 2013 138(3)Art. No. 034106
     doi.org/10.1063/1.4773581
  6. Riplinger,C.; Sandhoefer,B.; Hansen,A.; Neese,F.
     Natural triple excitations in local coupled cluster calculations with pair natural orbitals
     J. Chem. Phys., 2013 139(13)Art. No. 134101
     doi.org/10.1063/1.4821834
  7. Riplinger,C.; Pinski,P.; Becker,U.; Valeev,E.F.; Neese,F.
     Sparse maps-A systematic infrastructure for reduced-scaling electronic structure methods. II. Linear scaling domain based pair natural orbital coupled cluster theory
     J. Chem. Phys., 2016 144 
     doi.org/10.1063/1.4939030
  8. Schneider,W.B.; Bistoni,G.; Sparta,M.; Saitow,M.; Riplinger,C.; Auer,A.A.; Neese,F.
     Decomposition of Intermolecular Interaction Energies within the Local Pair Natural Orbital Coupled Cluster Framework
     J. Theo. Comp. Chem., 2016 12 4778-4792
     doi.org/10.1021/acs.jctc.6b00523
  9. Bistoni,G.; Riplinger,C.; Minenkov,Y.; Cavallo,L.; Auer,A.A.; Neese,F.
     Treating Subvalence Correlation Effects in Domain Based Pair Natural Orbital Coupled Cluster Calculations: An Out-of-the-Box Approach
     J. Theo. Comp. Chem., 2017 13 3220-3227
     doi.org/10.1021/acs.jctc.7b00352
 10. Guo,Y.; Riplinger,C.; Becker,U.; Liakos,D.G.; Minenkov,Y.; Cavallo,L.; Neese,F.
     Communication: An improved linear scaling perturbative triples correction for the domain based local pair-natural orbital based singles and doubles coupled cluster method DLPNO-CCSD(T)
     J. Chem. Phys., 2018 148 5
     doi.org/10.1063/1.5011798
 11. Helmich-Paris,B.; de Souza,B.; Neese,F.; Izsk,R.
     An improved chain of spheres for exchange algorithm
     J. Chem. Phys., 2021 155 104109
     doi.org/doi: 10.1063/5.0058766.

List of suggested additional citations. These are papers that are important in the 'surrounding' of 
of this run, or papers that preceded the highly important papers. If you like your results we are grateful for a citation.

  1. Izsak,R.; Neese,F.
     An overlap fitted chain of spheres exchange method
     J. Chem. Phys., 2011 135 144105
     doi.org/10.1063/1.3646921
  2. Izsak,R.; Hansen,A.; Neese,F.
     The resolution of identity and chain of spheres approximations for the LPNO-CCSD singles Fock term
     Molec. Phys., 2012 110 2413-2417
     doi.org/10.1080/00268976.2012.687466
  3. Neese,F.
     The ORCA program system
     WIRES Comput. Molec. Sci., 2012 2(1)73-78
     doi.org/10.1002/wcms.81
  4. Izsak,R.; Neese,F.; Klopper,W.
     Robust fitting techniques in the chain of spheres approximation to the Fock exchange: The role of the complementary space
     J. Chem. Phys., 2013 139 
     doi.org/10.1063/1.4819264
  5. Neese,F.
     Software update: the ORCA program system, version 4.0
     WIRES Comput. Molec. Sci., 2018 8(1)1-6
     doi.org/10.1002/wcms.1327
  6. Neese,F.; Wennmohs,F.; Becker,U.; Riplinger,C.
     The ORCA quantum chemistry program package
     J. Chem. Phys., 2020 152 Art. No. L224108
     doi.org/10.1063/5.0004608
  7. Bistoni,G.
     Finding chemical concepts in the Hilbert space: Coupled cluster analyses of noncovalent interactions
     WIRES Comput. Molec. Sci., 2020 10(3)e1442
     doi.org/10.1002/wcms.1442

Timings for individual modules:

Sum of individual times         ...       33.206 sec (=   0.553 min)
GTO integral calculation        ...        0.925 sec (=   0.015 min)   2.8 %
SCF iterations                  ...        2.685 sec (=   0.045 min)   8.1 %
MDCI module                     ...       29.596 sec (=   0.493 min)  89.1 %
                             ****ORCA TERMINATED NORMALLY****
TOTAL RUN TIME: 0 days 0 hours 0 minutes 33 seconds 816 msec