                                 *****************
                                 * O   R   C   A *
                                 *****************

                                            #,                                       
                                            ###                                      
                                            ####                                     
                                            #####                                    
                                            ######                                   
                                           ########,                                 
                                     ,,################,,,,,                         
                               ,,#################################,,                 
                          ,,##########################################,,             
                       ,#########################################, ''#####,          
                    ,#############################################,,   '####,        
                  ,##################################################,,,,####,       
                ,###########''''           ''''###############################       
              ,#####''   ,,,,##########,,,,          '''####'''          '####       
            ,##' ,,,,###########################,,,                        '##       
           ' ,,###''''                  '''############,,,                           
         ,,##''                                '''############,,,,        ,,,,,,###''
      ,#''                                            '''#######################'''  
     '                                                          ''''####''''         
             ,#######,   #######,   ,#######,      ##                                
            ,#'     '#,  ##    ##  ,#'     '#,    #''#        ######   ,####,        
            ##       ##  ##   ,#'  ##            #'  '#       #        #'  '#        
            ##       ##  #######   ##           ,######,      #####,   #    #        
            '#,     ,#'  ##    ##  '#,     ,#' ,#      #,         ##   #,  ,#        
             '#######'   ##     ##  '#######'  #'      '#     #####' # '####'        



                  #######################################################
                  #                        -***-                        #
                  #          Department of theory and spectroscopy      #
                  #    Directorship and core code : Frank Neese         #
                  #        Max Planck Institute fuer Kohlenforschung    #
                  #                Kaiser Wilhelm Platz 1               #
                  #                 D-45470 Muelheim/Ruhr               #
                  #                      Germany                        #
                  #                                                     #
                  #                  All rights reserved                #
                  #                        -***-                        #
                  #######################################################


                         Program Version 5.0  -  CURRENT   -
                                (GIT: $76ccee9ca$)
                ($2022-06-14 15:14:42 +0200 $)

                  !                     WARNING:                         !
                  !         This is a DEVELOPMENT version                !

                         (BUILD: $Mi 15. Jun 00:07:41 CEST 2022$)


 With contributions from (in alphabetic order):
   Daniel Aravena         : Magnetic Suceptibility
   Michael Atanasov       : Ab Initio Ligand Field Theory (pilot matlab implementation)
   Alexander A. Auer      : GIAO ZORA, VPT2 properties, NMR spectrum
   Ute Becker             : Parallelization
   Giovanni Bistoni       : ED, misc. LED, open-shell LED, HFLD
   Martin Brehm           : Molecular dynamics
   Dmytro Bykov           : SCF Hessian
   Vijay G. Chilkuri      : MRCI spin determinant printing, contributions to CSF-ICE
   Dipayan Datta          : RHF DLPNO-CCSD density
   Achintya Kumar Dutta   : EOM-CC, STEOM-CC
   Dmitry Ganyushin       : Spin-Orbit,Spin-Spin,Magnetic field MRCI
   Miquel Garcia          : C-PCM and meta-GGA Hessian, CC/C-PCM, Gaussian charge scheme
   Yang Guo               : DLPNO-NEVPT2, F12-NEVPT2, CIM, IAO-localization
   Andreas Hansen         : Spin unrestricted coupled pair/coupled cluster methods
   Benjamin Helmich-Paris : MC-RPA, TRAH-SCF, COSX integrals
   Lee Huntington         : MR-EOM, pCC
   Robert Izsak           : Overlap fitted RIJCOSX, COSX-SCS-MP3, EOM
   Marcus Kettner         : VPT2
   Christian Kollmar      : KDIIS, OOCD, Brueckner-CCSD(T), CCSD density, CASPT2, CASPT2-K, improved NEVPT2
   Simone Kossmann        : Meta GGA functionals, TD-DFT gradient, OOMP2, MP2 Hessian
   Martin Krupicka        : Initial AUTO-CI
   Lucas Lang             : DCDCAS
   Marvin Lechner         : AUTO-CI (C++ implementation), FIC-MRCC
   Dagmar Lenk            : GEPOL surface, SMD
   Dimitrios Liakos       : Extrapolation schemes; Compound Job, initial MDCI parallelization
   Dimitrios Manganas     : Further ROCIS development; embedding schemes
   Dimitrios Pantazis     : SARC Basis sets
   Anastasios Papadopoulos: AUTO-CI, single reference methods and gradients
   Taras Petrenko         : DFT Hessian,TD-DFT gradient, ASA, ECA, R-Raman, ABS, FL, XAS/XES, NRVS
   Peter Pinski           : DLPNO-MP2, DLPNO-MP2 Gradient
   Christoph Reimann      : Effective Core Potentials
   Marius Retegan         : Local ZFS, SOC
   Christoph Riplinger    : Optimizer, TS searches, QM/MM, DLPNO-CCSD(T), (RO)-DLPNO pert. Triples
   Tobias Risthaus        : Range-separated hybrids, TD-DFT gradient, RPA, STAB
   Michael Roemelt        : Original ROCIS implementation
   Masaaki Saitow         : Open-shell DLPNO-CCSD energy and density
   Barbara Sandhoefer     : DKH picture change effects
   Avijit Sen             : IP-ROCIS
   Kantharuban Sivalingam : CASSCF convergence, NEVPT2, FIC-MRCI
   Bernardo de Souza      : ESD, SOC TD-DFT
   Georgi Stoychev        : AutoAux, RI-MP2 NMR, DLPNO-MP2 response
   Willem Van den Heuvel  : Paramagnetic NMR
   Boris Wezisla          : Elementary symmetry handling
   Frank Wennmohs         : Technical directorship


 We gratefully acknowledge several colleagues who have allowed us to
 interface, adapt or use parts of their codes:
   Stefan Grimme, W. Hujo, H. Kruse, P. Pracht,  : VdW corrections, initial TS optimization,
                  C. Bannwarth, S. Ehlert          DFT functionals, gCP, sTDA/sTD-DF
   Ed Valeev, F. Pavosevic, A. Kumar             : LibInt (2-el integral package), F12 methods
   Garnet Chan, S. Sharma, J. Yang, R. Olivares  : DMRG
   Ulf Ekstrom                                   : XCFun DFT Library
   Mihaly Kallay                                 : mrcc  (arbitrary order and MRCC methods)
   Jiri Pittner, Ondrej Demel                    : Mk-CCSD
   Frank Weinhold                                : gennbo (NPA and NBO analysis)
   Christopher J. Cramer and Donald G. Truhlar   : smd solvation model
   Lars Goerigk                                  : TD-DFT with DH, B97 family of functionals
   V. Asgeirsson, H. Jonsson                     : NEB implementation
   FAccTs GmbH                                   : IRC, NEB, NEB-TS, DLPNO-Multilevel, CI-OPT
                                                   MM, QMMM, 2- and 3-layer-ONIOM, Crystal-QMMM,
                                                   LR-CPCM, SF, NACMEs, symmetry and pop. for TD-DFT,
                                                   nearIR, NL-DFT gradient (VV10), updates on ESD,
                                                   ML-optimized integration grids
   S Lehtola, MJT Oliveira, MAL Marques          : LibXC Library
   Liviu Ungur et al                             : ANISO software


 Your calculation uses the libint2 library for the computation of 2-el integrals
 For citations please refer to: http://libint.valeyev.net

 Your ORCA version has been built with support for libXC version: 5.2.2
 For citations please refer to: https://tddft.org/programs/libxc/

 This ORCA versions uses:
   CBLAS   interface :  Fast vector & matrix operations
   LAPACKE interface :  Fast linear algebra routines
   SCALAPACK package :  Parallel linear algebra routines
   Shared memory     :  Shared parallel matrices


================================================================================

----- Orbital basis set information -----
Your calculation utilizes the basis: aug-cc-pVTZ 
    H, B-Ne : Obtained from the ccRepo (grant-hill.group.shef.ac.uk/ccrepo) Feb. 2017
              R. A. Kendall, T. H. Dunning, Jr., R. J. Harrison, J. Chem. Phys. 96, 6796 (1992)
         He : Obtained from the ccRepo (grant-hill.group.shef.ac.uk/ccrepo) Feb. 2017
              D. E. Woon, T. H. Dunning, Jr., J. Chem. Phys. 100, 2975 (1994)
  Li-Be, Na : Obtained from the ccRepo (grant-hill.group.shef.ac.uk/ccrepo) Feb. 2017
              B. P. Prascher, D. E. Woon, K. A. Peterson, T. H. Dunning, Jr., A. K. Wilson, Theor. Chem. Acc. 128, 69 (2011)
         Mg : Obtained from the Peterson Research Group Website (tyr0.chem.wsu.edu/~kipeters) Feb. 2017
              B. P. Prascher, D. E. Woon, K. A. Peterson, T. H. Dunning, Jr., A. K. Wilson, Theor. Chem. Acc. 128, 69 (2011)
      Al-Ar : Obtained from the ccRepo (grant-hill.group.shef.ac.uk/ccrepo) Feb. 2017
              D. E. Woon, T. H. Dunning, Jr., J. Chem. Phys. 98, 1358 (1993)
      Sc-Zn : Obtained from the ccRepo (grant-hill.group.shef.ac.uk/ccrepo) Feb. 2017
              N. B. Balabanov, K. A. Peterson, J. Chem. Phys. 123, 064107 (2005)
              N. B. Balabanov, K. A. Peterson, J. Chem. Phys. 125, 074110 (2006)
      Ga-Kr : Obtained from the ccRepo (grant-hill.group.shef.ac.uk/ccrepo) Feb. 2017
              A. K. Wilson, D. E. Woon, K. A. Peterson, T. H. Dunning, Jr., J. Chem. Phys. 110, 7667 (1999)
     Ag, Au : Obtained from the Peterson Research Group Website (tyr0.chem.wsu.edu/~kipeters) Feb. 2017
              K. A. Peterson, C. Puzzarini, Theor. Chem. Acc. 114, 283 (2005)

----- AuxJ basis set information -----
----- AuxC basis set information -----
================================================================================
                                        WARNINGS
                       Please study these warnings very carefully!
================================================================================


WARNING: Post HF methods need fully converged wavefunctions
  ===> : Setting SCFConvForced true
         You can overwrite this default with %scf ConvForced false 


WARNING: MDCI localization with Augmented Hessian Foster-Boys
  ===> : Switching off randomization!

INFO   : the flag for use of the SHARK integral package has been found!

================================================================================
                                       INPUT FILE
================================================================================
NAME = frag62.inp
|  1> ! DLPNO-CCSD(T1) aug-cc-pVTZ DEFGRID3 RIJCOSX def2/J aug-cc-pVQZ/C verytightscf TightPNO LED
|  2> 
|  3> %pal nprocs 16 end
|  4> %maxcore 4000
|  5> %scf maxiter 999 end
|  6> %basis auxj "autoaux" auxc "autoaux" autoauxlmax true end
|  7> %mdci TCutPNO 1e-7 printlevel 3 end
|  8> 
|  9> * xyz 0 1
| 10> O(1)     1.597560181     2.978636709    -1.236245995
| 11> H(1)     1.417961949     3.808511891    -0.786488687
| 12> H(1)     0.711446199     2.593888593    -1.420550970
| 13> O(2)     2.482542995    -1.248988714     0.449488905
| 14> H(2)     2.616828786    -1.798226083    -0.326968465
| 15> H(2)     2.828107886    -0.362220961     0.204648083
| 16> *
| 17> 
| 18>                          ****END OF INPUT****
================================================================================

                       ****************************
                       * Single Point Calculation *
                       ****************************

---------------------------------
CARTESIAN COORDINATES (ANGSTROEM)
---------------------------------
  O      1.597560    2.978637   -1.236246
  H      1.417962    3.808512   -0.786489
  H      0.711446    2.593889   -1.420551
  O      2.482543   -1.248989    0.449489
  H      2.616829   -1.798226   -0.326968
  H      2.828108   -0.362221    0.204648

----------------------------
CARTESIAN COORDINATES (A.U.)
----------------------------
  NO LB      ZA    FRAG     MASS         X           Y           Z
   0 O     8.0000    1    15.999    3.018951    5.628808   -2.336166
   1 H     1.0000    1     1.008    2.679560    7.197044   -1.486248
   2 H     1.0000    1     1.008    1.344438    4.901739   -2.684452
   3 O     8.0000    2    15.999    4.691326   -2.360247    0.849411
   4 H     1.0000    2     1.008    4.945090   -3.398155   -0.617881
   5 H     1.0000    2     1.008    5.344349   -0.684498    0.386729

----------------------------------------------
CARTESIAN COORDINATES OF FRAGMENTS (ANGSTROEM)
----------------------------------------------

 FRAGMENT 1 
  O     1.597560    2.978637   -1.236246
  H     1.417962    3.808512   -0.786489
  H     0.711446    2.593889   -1.420551

 FRAGMENT 2 
  O     2.482543   -1.248989    0.449489
  H     2.616829   -1.798226   -0.326968
  H     2.828108   -0.362221    0.204648

--------------------------------
INTERNAL COORDINATES (ANGSTROEM)
--------------------------------
 O      0   0   0     0.000000000000     0.00000000     0.00000000
 H      1   0   0     0.960848572220     0.00000000     0.00000000
 H      1   2   0     0.983461959443   104.90384132     0.00000000
 O      3   1   2     4.626179740515    84.50702457   229.52361278
 H      4   3   1     0.960510493747   101.63936246   254.01135825
 H      4   3   1     0.982710114820    44.30189181   354.20249426

---------------------------
INTERNAL COORDINATES (A.U.)
---------------------------
 O      0   0   0     0.000000000000     0.00000000     0.00000000
 H      1   0   0     1.815740657664     0.00000000     0.00000000
 H      1   2   0     1.858473766477   104.90384132     0.00000000
 O      3   1   2     8.742212755867    84.50702457   229.52361278
 H      4   3   1     1.815101781939   101.63936246   254.01135825
 H      4   3   1     1.857052986045    44.30189181   354.20249426

---------------------
BASIS SET INFORMATION
---------------------
There are 2 groups of distinct atoms

 Group   1 Type O   : 19s6p3d2f contracted to 5s4p3d2f pattern {88111/3111/111/11}
 Group   2 Type H   : 6s3p2d contracted to 4s3p2d pattern {3111/111/11}

Atom   0O    basis set group =>   1
Atom   1H    basis set group =>   2
Atom   2H    basis set group =>   2
Atom   3O    basis set group =>   1
Atom   4H    basis set group =>   2
Atom   5H    basis set group =>   2
---------------------------------
AUXILIARY/J BASIS SET INFORMATION
---------------------------------
There are 2 groups of distinct atoms

 Group   1 Type O   : 16s14p13d7f5g3h2i contracted to 16s14p13d7f5g3h2i pattern {1111111111111111/11111111111111/1111111111111/1111111/11111/111/11}
 Group   2 Type H   : 14s6p5d4f3g contracted to 14s6p5d4f3g pattern {11111111111111/111111/11111/1111/111}

Atom   0O    basis set group =>   1
Atom   1H    basis set group =>   2
Atom   2H    basis set group =>   2
Atom   3O    basis set group =>   1
Atom   4H    basis set group =>   2
Atom   5H    basis set group =>   2
---------------------------------
AUXILIARY/C BASIS SET INFORMATION
---------------------------------
There are 2 groups of distinct atoms

 Group   1 Type O   : 16s14p13d7f5g3h2i contracted to 16s14p13d7f5g3h2i pattern {1111111111111111/11111111111111/1111111111111/1111111/11111/111/11}
 Group   2 Type H   : 14s6p5d4f3g contracted to 14s6p5d4f3g pattern {11111111111111/111111/11111/1111/111}

Atom   0O    basis set group =>   1
Atom   1H    basis set group =>   2
Atom   2H    basis set group =>   2
Atom   3O    basis set group =>   1
Atom   4H    basis set group =>   2
Atom   5H    basis set group =>   2

Checking for AutoStart:
The File: frag62.gbw exists
Trying to determine its content:
     ... Fine, the file contains calculation information
     ... Fine, the calculation information was read
     ... Fine, the file contains a basis set
     ... Fine, the basis set was read
     ... Fine, the file contains a geometry
     ... Fine, the geometry was read
     ... Fine, the file contains a set of orbitals
     ... Fine, the orbitals can be read
     => possible old guess file was deleted
     => GBW file was renamed to GES file
     => GES file is set as startup file
     => Guess is set to MORead
     ... now leaving AutoStart



           ************************************************************
           *        Program running with 16 parallel MPI-processes    *
           *              working on a common directory               *
           ************************************************************
------------------------------------------------------------------------------
                           ORCA GTO INTEGRAL CALCULATION
                           -- RI-GTO INTEGRALS CHOSEN --
------------------------------------------------------------------------------
------------------------------------------------------------------------------
                   ___                                                        
                  /   \      - P O W E R E D   B Y -                         
                 /     \                                                     
                 |  |  |   _    _      __       _____    __    __             
                 |  |  |  | |  | |    /  \     |  _  \  |  |  /  |          
                  \  \/   | |  | |   /    \    | | | |  |  | /  /          
                 / \  \   | |__| |  /  /\  \   | |_| |  |  |/  /          
                |  |  |   |  __  | /  /__\  \  |    /   |      \           
                |  |  |   | |  | | |   __   |  |    \   |  |\   \          
                \     /   | |  | | |  |  |  |  | |\  \  |  | \   \       
                 \___/    |_|  |_| |__|  |__|  |_| \__\ |__|  \__/        
                                                                              
                      - O R C A' S   B I G   F R I E N D -                    
                                      &                                       
                       - I N T E G R A L  F E E D E R -                       
                                                                              
 v1 FN, 2020, v2 2021                                                         
------------------------------------------------------------------------------


Reading SHARK input file frag62.SHARKINP.tmp ... ok
Calculating pre-screening integrals         ... done (  0.0 sec) Dimension = 76
Calculating pre-screening integrals (ORCA)  ... done (  0.0 sec) Dimension = 64
Organizing shell pair data                  ... done (  0.0 sec)
Shell pair information
Total number of shell pairs                 ...      2926
Shell pairs after pre-screening             ...      2534
Total number of primitive shell pairs       ...      3934
Primitive shell pairs kept                  ...      3210
          la=0 lb=0:    614 shell pairs
          la=1 lb=0:    662 shell pairs
          la=1 lb=1:    196 shell pairs
          la=2 lb=0:    453 shell pairs
          la=2 lb=1:    257 shell pairs
          la=2 lb=2:     96 shell pairs
          la=3 lb=0:    121 shell pairs
          la=3 lb=1:     75 shell pairs
          la=3 lb=2:     51 shell pairs
          la=3 lb=3:      9 shell pairs

Calculating one electron integrals          ... done (  0.0 sec)
Calculating RI/J V-Matrix + Cholesky decomp.... done (  0.2 sec)
Calculating RI/C V-Matrix + Cholesky decomp.... done (  0.2 sec)
Calculating Nuclear repulsion               ... done (  0.0 sec) ENN=     29.531848600011 Eh

SHARK setup successfully completed in   0.5 seconds

Maximum memory used throughout the entire GTOINT-calculation: 37.5 MB


           ************************************************************
           *        Program running with 16 parallel MPI-processes    *
           *              working on a common directory               *
           ************************************************************
-------------------------------------------------------------------------------
                                 ORCA SCF
-------------------------------------------------------------------------------

------------
SCF SETTINGS
------------
Hamiltonian:
 Ab initio Hamiltonian  Method          .... Hartree-Fock(GTOs)
 RI-approximation to the Coulomb term is turned on
   Number of AuxJ basis functions       .... 1000
   RIJ-COSX (HFX calculated with COS-X)).... on


General Settings:
 Integral files         IntName         .... frag62
 Hartree-Fock type      HFTyp           .... RHF
 Total Charge           Charge          ....    0
 Multiplicity           Mult            ....    1
 Number of Electrons    NEL             ....   20
 Basis Dimension        Dim             ....  184
 Nuclear Repulsion      ENuc            ....     29.5318486000 Eh

Convergence Acceleration:
 DIIS                   CNVDIIS         .... on
   Start iteration      DIISMaxIt       ....    12
   Startup error        DIISStart       ....  0.200000
   # of expansion vecs  DIISMaxEq       ....     5
   Bias factor          DIISBfac        ....   1.050
   Max. coefficient     DIISMaxC        ....  10.000
 Trust-Rad. Augm. Hess. CNVTRAH         .... auto
   Auto Start mean grad. ratio tolernc. ....  1.125000
   Auto Start start iteration           ....     1
   Auto Start num. interpolation iter.  ....    10
   Max. Number of Micro iterations      ....    24
   Max. Number of Macro iterations      .... Maxiter - #DIIS iter
   Max. Number of back steps            ....     5
   Number of Davidson start vectors     ....     2
   Converg. threshold I  (grad. norm)   ....   2.000e-06
   Converg. threshold II (energy diff.) ....   1.000e-09
   Grad. Scal. Fac. for Micro threshold ....   0.100
   Minimum threshold for Micro iter.    ....   1.000e-02
   NR start threshold (gradient norm)   ....   1.000e-04
   Initial trust radius                 ....   0.400
   Minimum AH scaling param. (alpha)    ....   1.000
   Maximum AH scaling param. (alpha)    .... 1000.000
   Inactive MOs                         .... canonicalized
   Orbital update algorithm             .... Taylor
   White noise on init. David. guess    .... on
   Maximum white noise                  ....   0.010
   Quad. conv. algorithm                .... NR
   Preconditioner                       .... approx. diagonal
 SOSCF                  CNVSOSCF        .... on
   Start iteration      SOSCFMaxIt      ....   150
   Startup grad/error   SOSCFStart      ....  0.003300
 Level Shifting         CNVShift        .... on
   Level shift para.    LevelShift      ....    0.2500
   Turn off err/grad.   ShiftErr        ....    0.0010
 Zerner damping         CNVZerner       .... off
 Static damping         CNVDamp         .... on
   Fraction old density DampFac         ....    0.7000
   Max. Damping (<1)    DampMax         ....    0.9800
   Min. Damping (>=0)   DampMin         ....    0.0000
   Turn off err/grad.   DampErr         ....    0.1000

SCF Procedure:
 Maximum # iterations   MaxIter         ....   999
 SCF integral mode      SCFMode         .... Direct
   Integral package                     .... SHARK and LIBINT hybrid scheme
 Reset frequency        DirectResetFreq ....    20
 Integral Threshold     Thresh          ....  1.000e-12 Eh
 Primitive CutOff       TCut            ....  1.000e-14 Eh

Convergence Tolerance:
 Convergence Check Mode ConvCheckMode   .... Total+1el-Energy
 Convergence forced     ConvForced      .... 1
 Energy Change          TolE            ....  1.000e-09 Eh
 1-El. energy change                    ....  1.000e-06 Eh
 Orbital Gradient       TolG            ....  2.000e-06
 Orbital Rotation angle TolX            ....  2.000e-06
 DIIS Error             TolErr          ....  1.000e-08


Diagonalization of the overlap matrix:
Smallest eigenvalue                        ... 3.621e-04
Time for diagonalization                   ...    0.005 sec
Threshold for overlap eigenvalues          ... 1.000e-08
Number of eigenvalues below threshold      ... 0
Time for construction of square roots      ...    0.004 sec
Total time needed                          ...    0.010 sec

---------------------
INITIAL GUESS: MOREAD
---------------------
Guess MOs are being read from file: frag62.ges
Input Geometry matches current geometry (good)
Input basis set matches current basis set (good)
MOs were renormalized
MOs were reorthogonalized (Cholesky)
                      ------------------
                      INITIAL GUESS DONE (   0.0 sec)
                      ------------------
--------------------
COSX GRID GENERATION
--------------------

GRIDX 1
-------
General Integration Accuracy     IntAcc      ... 4.020
Radial Grid Type                 RadialGrid  ... OptM3 with GC (2021)
Angular Grid (max. ang.)         AngularGrid ... 2 (Lebedev-110)
Angular grid pruning method      GridPruning ... 4 (adaptive)
Weight generation scheme         WeightScheme... Becke
Basis function cutoff            BFCut       ... 1.0000e-12
Integration weight cutoff        WCut        ... 1.0000e-14
Angular grids for H and He will be reduced by one unit
Partially contracted basis set               ... on
Rotationally invariant grid construction     ... off

Total number of grid points                  ...     8288
Total number of batches                      ...      134
Average number of points per batch           ...       61
Average number of grid points per atom       ...     1381
UseSFitting                                  ... on

GRIDX 2
-------
General Integration Accuracy     IntAcc      ... 4.338
Radial Grid Type                 RadialGrid  ... OptM3 with GC (2021)
Angular Grid (max. ang.)         AngularGrid ... 3 (Lebedev-194)
Angular grid pruning method      GridPruning ... 4 (adaptive)
Weight generation scheme         WeightScheme... Becke
Basis function cutoff            BFCut       ... 1.0000e-12
Integration weight cutoff        WCut        ... 1.0000e-14
Angular grids for H and He will be reduced by one unit
Partially contracted basis set               ... on
Rotationally invariant grid construction     ... off

Total number of grid points                  ...    18940
Total number of batches                      ...      299
Average number of points per batch           ...       63
Average number of grid points per atom       ...     3157
UseSFitting                                  ... on

GRIDX 3
-------
General Integration Accuracy     IntAcc      ... 4.871
Radial Grid Type                 RadialGrid  ... OptM3 with GC (2021)
Angular Grid (max. ang.)         AngularGrid ... 4 (Lebedev-302)
Angular grid pruning method      GridPruning ... 4 (adaptive)
Weight generation scheme         WeightScheme... Becke
Basis function cutoff            BFCut       ... 1.0000e-12
Integration weight cutoff        WCut        ... 1.0000e-14
Angular grids for H and He will be reduced by one unit
Partially contracted basis set               ... on
Rotationally invariant grid construction     ... off

Total number of grid points                  ...    37011
Total number of batches                      ...      580
Average number of points per batch           ...       63
Average number of grid points per atom       ...     6168
UseSFitting                                  ... on

Time for X-Grid setup             =    0.261 sec

 re-compute Schwartz prescreening matrix in partially contracted basis (1) ...done (   0.045 sec)
--------------
SCF ITERATIONS
--------------
ITER       Energy         Delta-E        Max-DP      RMS-DP      [F,P]     Damp
               ***  Starting incremental Fock matrix formation  ***
                      *** Initiating the SOSCF procedure ***
                      *** Re-Reading the Fockian *** 
                      *** Removing any level shift *** 
ITER       Energy         Delta-E        Max-DP      RMS-DP   
  0   -152.1195713207   0.000000000000 0.00397984  0.00006735
               *** Restarting incremental Fock matrix formation ***
  1   -152.1194908510   0.000080469725 0.00390542  0.00006478
  2   -152.1194910719  -0.000000220883 0.00024766  0.00000327
  3   -152.1194908613   0.000000210606 0.00001600  0.00000024
  4   -152.1194908560   0.000000005217 0.00000275  0.00000006
  5   -152.1194908586  -0.000000002562 0.00000229  0.00000003
                 **** Energy Check signals convergence ****
              ***Rediagonalizing the Fockian in SOSCF/NRSCF***

               *****************************************************
               *                     SUCCESS                       *
               *           SCF CONVERGED AFTER   6 CYCLES          *
               *****************************************************

Old exchange energy                            =    -17.856828849 Eh
New exchange energy                            =    -17.856898139 Eh
Exchange energy change after final integration =     -0.000069290 Eh
Total energy after final integration           =   -152.119560150 Eh
Final COS-X integration done in                =     0.387 sec

----------------
TOTAL SCF ENERGY
----------------

Total Energy       :         -152.11956015 Eh           -4139.38367 eV

Components:
Nuclear Repulsion  :           29.53184860 Eh             803.60245 eV
Electronic Energy  :         -181.65140875 Eh           -4942.98613 eV
One Electron Energy:         -268.44520792 Eh           -7304.76547 eV
Two Electron Energy:           86.79379917 Eh            2361.77935 eV
Max COSX asymmetry :            0.00000037 Eh               0.00001 eV

Virial components:
Potential Energy   :         -303.92384297 Eh           -8270.18822 eV
Kinetic Energy     :          151.80428282 Eh            4130.80454 eV
Virial Ratio       :            2.00207687


---------------
SCF CONVERGENCE
---------------

  Last Energy change         ...   -9.2541e-10  Tolerance :   1.0000e-09
  Last MAX-Density change    ...    1.3323e-15  Tolerance :   1.0000e-08
  Last RMS-Density change    ...    1.2780e-17  Tolerance :   1.0000e-09

             **** THE GBW FILE WAS UPDATED (frag62.gbw) ****
             **** DENSITY frag62.scfp WAS UPDATED ****
             **** ENERGY FILE WAS UPDATED (frag62.en.tmp) ****
             **** THE GBW FILE WAS UPDATED (frag62.gbw) ****
             **** DENSITY frag62.scfp WAS UPDATED ****
             **** ENERGY FILE WAS UPDATED (frag62.en.tmp) ****
----------------
ORBITAL ENERGIES
----------------

  NO   OCC          E(Eh)            E(eV) 
   0   2.0000     -20.574840      -559.8699 
   1   2.0000     -20.562892      -559.5447 
   2   2.0000      -1.351244       -36.7692 
   3   2.0000      -1.339500       -36.4497 
   4   2.0000      -0.715778       -19.4773 
   5   2.0000      -0.705435       -19.1959 
   6   2.0000      -0.587140       -15.9769 
   7   2.0000      -0.574500       -15.6329 
   8   2.0000      -0.514618       -14.0035 
   9   2.0000      -0.502788       -13.6816 
  10   0.0000       0.025341         0.6896 
  11   0.0000       0.039489         1.0745 
  12   0.0000       0.048873         1.3299 
  13   0.0000       0.063204         1.7199 
  14   0.0000       0.130915         3.5624 
  15   0.0000       0.139197         3.7878 
  16   0.0000       0.156921         4.2700 
  17   0.0000       0.171208         4.6588 
  18   0.0000       0.178800         4.8654 
  19   0.0000       0.184571         5.0224 
  20   0.0000       0.194460         5.2915 
  21   0.0000       0.205867         5.6019 
  22   0.0000       0.222343         6.0503 
  23   0.0000       0.236480         6.4349 
  24   0.0000       0.250055         6.8043 
  25   0.0000       0.257706         7.0125 
  26   0.0000       0.271954         7.4002 
  27   0.0000       0.287440         7.8216 
  28   0.0000       0.309094         8.4109 
  29   0.0000       0.314080         8.5466 
  30   0.0000       0.345259         9.3950 
  31   0.0000       0.369472        10.0538 
  32   0.0000       0.389245        10.5919 
  33   0.0000       0.401866        10.9353 
  34   0.0000       0.435873        11.8607 
  35   0.0000       0.456183        12.4134 
  36   0.0000       0.464800        12.6478 
  37   0.0000       0.498011        13.5516 
  38   0.0000       0.589338        16.0367 
  39   0.0000       0.617704        16.8086 
  40   0.0000       0.655435        17.8353 
  41   0.0000       0.672834        18.3087 
  42   0.0000       0.706367        19.2212 
  43   0.0000       0.712143        19.3784 
  44   0.0000       0.716209        19.4890 
  45   0.0000       0.741448        20.1758 
  46   0.0000       0.745343        20.2818 
  47   0.0000       0.760834        20.7034 
  48   0.0000       0.812521        22.1098 
  49   0.0000       0.837686        22.7946 
  50   0.0000       0.840008        22.8578 
  51   0.0000       0.866369        23.5751 
  52   0.0000       0.883610        24.0443 
  53   0.0000       0.888693        24.1826 
  54   0.0000       0.906507        24.6673 
  55   0.0000       0.910828        24.7849 
  56   0.0000       0.917895        24.9772 
  57   0.0000       0.929828        25.3019 
  58   0.0000       0.932348        25.3705 
  59   0.0000       0.947195        25.7745 
  60   0.0000       0.960392        26.1336 
  61   0.0000       0.976358        26.5681 
  62   0.0000       0.989968        26.9384 
  63   0.0000       1.013675        27.5835 
  64   0.0000       1.033539        28.1240 
  65   0.0000       1.038915        28.2703 
  66   0.0000       1.047568        28.5058 
  67   0.0000       1.074622        29.2419 
  68   0.0000       1.091874        29.7114 
  69   0.0000       1.108807        30.1722 
  70   0.0000       1.124052        30.5870 
  71   0.0000       1.158055        31.5123 
  72   0.0000       1.171134        31.8682 
  73   0.0000       1.181601        32.1530 
  74   0.0000       1.190897        32.4060 
  75   0.0000       1.222226        33.2585 
  76   0.0000       1.271778        34.6068 
  77   0.0000       1.291410        35.1411 
  78   0.0000       1.507682        41.0261 
  79   0.0000       1.535499        41.7831 
  80   0.0000       1.543810        42.0092 
  81   0.0000       1.559594        42.4387 
  82   0.0000       1.583683        43.0942 
  83   0.0000       1.606571        43.7170 
  84   0.0000       1.800634        48.9977 
  85   0.0000       1.803067        49.0640 
  86   0.0000       1.812393        49.3177 
  87   0.0000       1.841099        50.0988 
  88   0.0000       1.970498        53.6200 
  89   0.0000       1.985349        54.0241 
  90   0.0000       2.104651        57.2705 
  91   0.0000       2.113536        57.5122 
  92   0.0000       2.253843        61.3302 
  93   0.0000       2.274331        61.8877 
  94   0.0000       2.308124        62.8072 
  95   0.0000       2.326818        63.3159 
  96   0.0000       2.337476        63.6059 
  97   0.0000       2.354265        64.0628 
  98   0.0000       2.415283        65.7232 
  99   0.0000       2.419700        65.8434 
 100   0.0000       2.422894        65.9303 
 101   0.0000       2.431356        66.1606 
 102   0.0000       2.449668        66.6589 
 103   0.0000       2.460769        66.9609 
 104   0.0000       2.485071        67.6222 
 105   0.0000       2.503722        68.1297 
 106   0.0000       2.680985        72.9533 
 107   0.0000       2.708195        73.6937 
 108   0.0000       2.711310        73.7785 
 109   0.0000       2.732647        74.3591 
 110   0.0000       2.757280        75.0294 
 111   0.0000       2.772570        75.4455 
 112   0.0000       2.819371        76.7190 
 113   0.0000       2.837108        77.2016 
 114   0.0000       2.877003        78.2872 
 115   0.0000       2.910684        79.2037 
 116   0.0000       3.626452        98.6808 
 117   0.0000       3.645374        99.1957 
 118   0.0000       3.737239       101.6954 
 119   0.0000       3.760499       102.3284 
 120   0.0000       4.002926       108.9252 
 121   0.0000       4.013800       109.2210 
 122   0.0000       4.073850       110.8551 
 123   0.0000       4.109858       111.8349 
 124   0.0000       4.162160       113.2581 
 125   0.0000       4.179244       113.7230 
 126   0.0000       4.224680       114.9594 
 127   0.0000       4.238247       115.3286 
 128   0.0000       4.289676       116.7280 
 129   0.0000       4.305626       117.1620 
 130   0.0000       4.370064       118.9155 
 131   0.0000       4.377777       119.1254 
 132   0.0000       4.384281       119.3024 
 133   0.0000       4.389575       119.4464 
 134   0.0000       4.402088       119.7869 
 135   0.0000       4.416149       120.1695 
 136   0.0000       4.499307       122.4324 
 137   0.0000       4.512355       122.7874 
 138   0.0000       4.707260       128.0911 
 139   0.0000       4.723516       128.5334 
 140   0.0000       4.802288       130.6769 
 141   0.0000       4.813168       130.9730 
 142   0.0000       5.105994       138.9412 
 143   0.0000       5.113932       139.1572 
 144   0.0000       5.120551       139.3373 
 145   0.0000       5.130237       139.6008 
 146   0.0000       5.236118       142.4820 
 147   0.0000       5.259155       143.1089 
 148   0.0000       5.283286       143.7655 
 149   0.0000       5.295974       144.1108 
 150   0.0000       5.481779       149.1668 
 151   0.0000       5.491394       149.4284 
 152   0.0000       5.656102       153.9104 
 153   0.0000       5.669597       154.2776 
 154   0.0000       6.154209       167.4645 
 155   0.0000       6.158111       167.5707 
 156   0.0000       6.517949       177.3624 
 157   0.0000       6.535100       177.8291 
 158   0.0000       6.701789       182.3650 
 159   0.0000       6.713320       182.6787 
 160   0.0000       6.862680       186.7430 
 161   0.0000       6.872184       187.0016 
 162   0.0000       7.117024       193.6641 
 163   0.0000       7.128868       193.9864 
 164   0.0000       7.232220       196.7987 
 165   0.0000       7.260378       197.5649 
 166   0.0000       7.281456       198.1385 
 167   0.0000       7.288298       198.3247 
 168   0.0000       7.300373       198.6533 
 169   0.0000       7.303502       198.7384 
 170   0.0000       7.324626       199.3132 
 171   0.0000       7.326252       199.3575 
 172   0.0000       7.355086       200.1421 
 173   0.0000       7.374603       200.6732 
 174   0.0000       7.499487       204.0714 
 175   0.0000       7.517499       204.5616 
 176   0.0000       7.866092       214.0472 
 177   0.0000       7.881031       214.4537 
 178   0.0000       7.895837       214.8566 
 179   0.0000       7.911760       215.2899 
 180   0.0000       8.728671       237.5192 
 181   0.0000       8.743372       237.9193 
 182   0.0000      15.382587       418.5815 
 183   0.0000      15.438230       420.0956 

--------------------
FRAGMENT INFORMATION
--------------------
Fragment  1:    0   1   2 
Fragment  2:    3   4   5 


                    ********************************
                    * MULLIKEN POPULATION ANALYSIS *
                    ********************************

-------------------------
MULLIKEN FRAGMENT CHARGES
-------------------------
 Fragment   0 :   0.000638
 Fragment   1 :  -0.000638
Sum of fragment charges:    0.0000000

---------------------------------
MULLIKEN FRAGMENT OVERLAP CHARGES
---------------------------------
                  0          1    
      0      11.134713  -0.000260
      1      -0.000260  11.100877

-----------------------
MULLIKEN ATOMIC CHARGES
-----------------------
   0 O :   -0.464481
   1 H :    0.223151
   2 H :    0.241969
   3 O :   -0.474453
   4 H :    0.217054
   5 H :    0.256761
Sum of atomic charges:    0.0000000

--------------------------------
MULLIKEN REDUCED ORBITAL CHARGES
--------------------------------
  0 O s       :     3.870407  s :     3.870407
      pz      :     1.744138  p :     4.574647
      px      :     1.427216
      py      :     1.403293
      dz2     :     0.002013  d :     0.018075
      dxz     :     0.002312
      dyz     :     0.001972
      dx2y2   :     0.007384
      dxy     :     0.004393
      f0      :     0.000397  f :     0.001353
      f+1     :     0.000255
      f-1     :     0.000159
      f+2     :     0.000207
      f-2     :     0.000129
      f+3     :     0.000117
      f-3     :     0.000089
  1 H s       :     0.656932  s :     0.656932
      pz      :     0.041968  p :     0.100782
      px      :     0.031177
      py      :     0.027636
      dz2     :     0.005664  d :     0.019135
      dxz     :     0.001825
      dyz     :     0.003485
      dx2y2   :     0.002405
      dxy     :     0.005756
  2 H s       :     0.647320  s :     0.647320
      pz      :     0.041904  p :     0.093563
      px      :     0.019591
      py      :     0.032068
      dz2     :     0.001062  d :     0.017148
      dxz     :     0.006345
      dyz     :     0.002001
      dx2y2   :     0.005003
      dxy     :     0.002737
  3 O s       :     3.880922  s :     3.880922
      pz      :     1.488609  p :     4.574076
      px      :     1.802992
      py      :     1.282475
      dz2     :     0.005290  d :     0.018097
      dxz     :     0.002396
      dyz     :     0.006822
      dx2y2   :     0.000801
      dxy     :     0.002790
      f0      :     0.000085  f :     0.001357
      f+1     :     0.000108
      f-1     :     0.000173
      f+2     :     0.000168
      f-2     :     0.000197
      f+3     :     0.000404
      f-3     :     0.000222
  4 H s       :     0.663301  s :     0.663301
      pz      :     0.024342  p :     0.100845
      px      :     0.046579
      py      :     0.029924
      dz2     :     0.006264  d :     0.018800
      dxz     :     0.005589
      dyz     :     0.000761
      dx2y2   :     0.002273
      dxy     :     0.003912
  5 H s       :     0.635065  s :     0.635065
      pz      :     0.029237  p :     0.090196
      px      :     0.041226
      py      :     0.019732
      dz2     :     0.000558  d :     0.017979
      dxz     :     0.000627
      dyz     :     0.006712
      dx2y2   :     0.004078
      dxy     :     0.006004


                     *******************************
                     * LOEWDIN POPULATION ANALYSIS *
                     *******************************

------------------------
LOEWDIN FRAGMENT CHARGES
------------------------
 Fragment   0 :   0.001193
 Fragment   1 :  -0.001193

----------------------------
LOEWDIN FRAGMENT BOND ORDERS
----------------------------
                  0          1    
      0      18.220973   0.006527
      1       0.006527  18.227743

----------------------
LOEWDIN ATOMIC CHARGES
----------------------
   0 O :    0.999020
   1 H :   -0.522156
   2 H :   -0.475671
   3 O :    0.999593
   4 H :   -0.524010
   5 H :   -0.476775

-------------------------------
LOEWDIN REDUCED ORBITAL CHARGES
-------------------------------
  0 O s       :     3.019140  s :     3.019140
      pz      :     1.379700  p :     3.897131
      px      :     1.278527
      py      :     1.238904
      dz2     :     0.005679  d :     0.070093
      dxz     :     0.004824
      dyz     :     0.015546
      dx2y2   :     0.025838
      dxy     :     0.018206
      f0      :     0.001955  f :     0.014616
      f+1     :     0.001550
      f-1     :     0.000431
      f+2     :     0.002901
      f-2     :     0.000963
      f+3     :     0.002405
      f-3     :     0.004410
  1 H s       :     0.591983  s :     0.591983
      pz      :     0.184506  p :     0.560613
      px      :     0.152617
      py      :     0.223489
      dz2     :     0.066708  d :     0.369561
      dxz     :     0.033024
      dyz     :     0.097932
      dx2y2   :     0.069105
      dxy     :     0.102791
  2 H s       :     0.582622  s :     0.582622
      pz      :     0.152291  p :     0.532303
      px      :     0.236144
      py      :     0.143868
      dz2     :     0.036761  d :     0.360745
      dxz     :     0.094638
      dyz     :     0.027209
      dx2y2   :     0.111645
      dxy     :     0.090492
  3 O s       :     3.018526  s :     3.018526
      pz      :     1.313546  p :     3.897148
      px      :     1.408729
      py      :     1.174873
      dz2     :     0.014602  d :     0.070212
      dxz     :     0.001077
      dyz     :     0.029810
      dx2y2   :     0.014118
      dxy     :     0.010605
      f0      :     0.001536  f :     0.014521
      f+1     :     0.000556
      f-1     :     0.005212
      f+2     :     0.001966
      f-2     :     0.001748
      f+3     :     0.002849
      f-3     :     0.000654
  4 H s       :     0.593601  s :     0.593601
      pz      :     0.230635  p :     0.561530
      px      :     0.167378
      py      :     0.163517
      dz2     :     0.117651  d :     0.368879
      dxz     :     0.079897
      dyz     :     0.083255
      dx2y2   :     0.045714
      dxy     :     0.042362
  5 H s       :     0.581971  s :     0.581971
      pz      :     0.149803  p :     0.533670
      px      :     0.169577
      py      :     0.214289
      dz2     :     0.032414  d :     0.361135
      dxz     :     0.019874
      dyz     :     0.110438
      dx2y2   :     0.098547
      dxy     :     0.099862


                      *****************************
                      * MAYER POPULATION ANALYSIS *
                      *****************************

  NA   - Mulliken gross atomic population
  ZA   - Total nuclear charge
  QA   - Mulliken gross atomic charge
  VA   - Mayer's total valence
  BVA  - Mayer's bonded valence
  FA   - Mayer's free valence

  ATOM       NA         ZA         QA         VA         BVA        FA
  0 O      8.4645     8.0000    -0.4645     1.9811     1.9811     0.0000
  1 H      0.7768     1.0000     0.2232     1.0347     1.0347     0.0000
  2 H      0.7580     1.0000     0.2420     1.0170     1.0170     0.0000
  3 O      8.4745     8.0000    -0.4745     1.9650     1.9650     0.0000
  4 H      0.7829     1.0000     0.2171     1.0402     1.0402    -0.0000
  5 H      0.7432     1.0000     0.2568     0.9988     0.9988     0.0000

  Mayer bond orders larger than 0.100000
B(  0-O ,  1-H ) :   0.9993 B(  0-O ,  2-H ) :   0.9817 B(  3-O ,  4-H ) :   1.0038 
B(  3-O ,  5-H ) :   0.9620 

-------
TIMINGS
-------

Total SCF time: 0 days 0 hours 0 min 2 sec 

Total time                  ....       2.288 sec
Sum of individual times     ....       3.353 sec  (146.5%)

Fock matrix formation       ....       3.026 sec  (132.3%)
  Split-RI-J                ....       0.400 sec  ( 13.2% of F)
  Chain of spheres X        ....       1.368 sec  ( 45.2% of F)
Diagonalization             ....       0.007 sec  (  0.3%)
Density matrix formation    ....       0.003 sec  (  0.1%)
Population analysis         ....       0.008 sec  (  0.4%)
Initial guess               ....       0.008 sec  (  0.3%)
Orbital Transformation      ....       0.000 sec  (  0.0%)
Orbital Orthonormalization  ....       0.003 sec  (  0.1%)
DIIS solution               ....       0.004 sec  (  0.2%)
SOSCF solution              ....       0.035 sec  (  1.5%)

Maximum memory used throughout the entire SCF-calculation: 73.2 MB


           ************************************************************
           *        Program running with 16 parallel MPI-processes    *
           *              working on a common directory               *
           ************************************************************


--------------------------------------------------------------------------------
                             ORCA-MATRIX DRIVEN CI
--------------------------------------------------------------------------------


Wavefunction type
-----------------
Correlation treatment                      ...      CCSD     
Single excitations                         ... ON
Orbital optimization                       ... OFF
Calculation of Z vector                    ... OFF
Calculation of Brueckner orbitals          ... OFF
Perturbative triple excitations            ... ON
Calculation of F12 correction              ... OFF
Frozen core treatment                      ... chemical core (4 el)
Reference Wavefunction                     ... RHF
  Internal Orbitals:     2 ...    9 (  8 MO's/ 16 electrons)
  Virtual  Orbitals:    10 ...  183 (174 MO's              )
Number of AO's                             ...    184
Number of electrons                        ...     20
Number of correlated electrons             ...     16

Algorithmic settings
--------------------
Integral transformation                    ... All integrals via the RI transformation
K(C) Formation                             ... RI-DLPNO
   PNO-Integral Storage                    ... ON DISK
   PNO occupation number cut-off           ... 1.000e-07
   Singles PNO occupation number cut-off   ... 3.000e-09
   PNO Mulliken prescreening cut-off       ... 1.000e-03
   Domain cut-off (Mulliken population)    ... 1.000e-03
   PNO Normalization                       ...    1
Maximum number of iterations               ...        50
Convergence tolerance (max. residuum)      ... 1.000e-06
Level shift for amplitude update           ... 2.000e-01
Maximum number of DIIS vectors             ...         7
DIIS turned on at iteration                ...         0
Damping before turning on DIIS             ...     0.500
Damping after turning on DIIS              ...     0.000
Pair specific amplitude update             ... OFF
Natural orbital iterations                 ... OFF
Perturbative natural orbital generation    ... OFF
Printlevel                                 ... 3

Singles Fock matrix elements calculated using PNOs.

Memory handling:
----------------
Maximum memory for working arrays          ...   4000 MB
Data storage in matrix containers          ... UNCOMPRESSED
Data type for integral storage             ... DOUBLE
In-Core Storage of quantities:
   Amplitudes+Sigma Vector      ... NO
   J+K operators                ... NO
   DIIS vectors                 ... NO
   3-external integrals         ... NO
   4-external integrals         ... NO

Localization treatment:
-----------------------
Localization option                        ...    6
Localization threshhold                    ... -1.0e+00
Using relative localization threshhold     ... 1.0e-08
Neglect threshold for strong pairs         ... 1.000e-05 Eh
Prescreening threshold for very weak pairs ... 1.000e-07 Eh

Initializing the integral package          ... done
Localizing the valence orbitals
Localizing the valence orbitals
------------------------------------------------------------------------------
                           ORCA ORBITAL LOCALIZATION
------------------------------------------------------------------------------

Input orbitals are from                  ... frag62.gbw
Output orbitals are to                   ... frag62.loc
Max. number of iterations                ... 128
Localizations seeded randomly            ... off
Convergence tolerance                    ... 2.000e-07
Using relative localization threshhold   ... 1.000e-08
Threshold for strong local MOs           ... 9.500e-01
Threshold for bond MOs                   ... 8.500e-01
Operator                                 ... 0
Orbital range for localization           ... 2 to 9
Localization criterion                   ... FOSTER-BOYS (AUGMENTED HESSIAN)
Doing the dipole integrals     ... o.k.
Initial value of the localization sum :   298.245532
ITERATION   0 : L=  302.0030555716 DL=  3.76e+00 (AVERGE_DL)=    0.3663294476 
ITERATION   1 : L=  302.3508048697 DL=  3.48e-01 (AVERGE_DL)=    0.1114433389 
ITERATION   2 : L=  302.4158755502 DL=  6.51e-02 (AVERGE_DL)=    0.0482073944 
ITERATION   3 : L=  302.4222674327 DL=  6.39e-03 (AVERGE_DL)=    0.0151089880 
ITERATION   4 : L=  302.4230317505 DL=  7.64e-04 (AVERGE_DL)=    0.0052246593 
ITERATION   5 : L=  302.4231200565 DL=  8.83e-05 (AVERGE_DL)=    0.0017758900 
ITERATION   6 : L=  302.4231295758 DL=  9.52e-06 (AVERGE_DL)=    0.0005830732 
ITERATION   7 : L=  302.4231305461 DL=  9.70e-07 (AVERGE_DL)=    0.0001861574 
LOCALIZATION SUM CONVERGED

------------------------------------------------------
AUGMENTED HESSIAN OPTIMIZATION OF FOSTER-BOYS ORBITALS
------------------------------------------------------

Spin operator:           0
Orbital window:          2 to 9
Number of iterations:    128
Gradient tolerance:      2.000e-07
Number of pairs:         28
Davidson threshold:      2000
Diagonalization method:  LAPACK
Iter:    0   L: 302.4231305461   Grad. norm: 8.896893e-04
   *** Likely close to a maximum now. ***
       Augmented Hessian eigenvalues:  2.11e-07 -1.28e+00 -1.29e+00 -3.20e+00 ... 
Iter:    1   L: 302.4231306518   Grad. norm: 7.476204e-08
LOCALIZATION HAS CONVERGED.

Eigenvalues of the Hessian:
  0 -1.277e+00
  1 -1.293e+00
  2 -3.201e+00
  3 -3.213e+00
  4 -4.685e+00
  5 -4.692e+00
  6 -5.331e+00
  7 -5.351e+00
  8 -7.193e+00
  9 -7.214e+00
    ...


--------------------------------------------------------------------------------
                    LOCALIZED MOLECULAR ORBITAL COMPOSITIONS
--------------------------------------------------------------------------------

The Mulliken populations for each LMO on each atom are computed
The LMO`s will be ordered according to atom index and type
  (A) Strongly localized MO`s have populations of >=0.950 on one atom
  (B) Two center bond orbitals have populations of >=0.850 on two atoms
  (C) Other MO`s are considered to be `delocalized`

FOUND  -   4 strongly local MO`s
       -   4 two center bond MO`s
       -   0 significantly delocalized MO`s

Rather strongly localized orbitals:
MO   5:   3O  -   1.003401
MO   4:   3O  -   1.002407
MO   3:   0O  -   0.997612
MO   2:   0O  -   1.003248
Bond-like localized orbitals:
MO   9:   5H  -   0.371131  and   3O  -   0.623523
MO   8:   4H  -   0.386757  and   3O  -   0.608824
MO   7:   2H  -   0.375872  and   0O  -   0.619641
MO   6:   1H  -   0.383643  and   0O  -   0.612114
Localized MO's were stored in: frag62.loc

Localizing the core orbitals
------------------------------------------------------------------------------
                           ORCA ORBITAL LOCALIZATION
------------------------------------------------------------------------------

Input orbitals are from                  ... frag62.loc
Output orbitals are to                   ... frag62.loc
Max. number of iterations                ... 128
Localizations seeded randomly            ... off
Convergence tolerance                    ... 2.000e-07
Using relative localization threshhold   ... 1.000e-08
Threshold for strong local MOs           ... 9.500e-01
Threshold for bond MOs                   ... 8.500e-01
Operator                                 ... 0
Orbital range for localization           ... 0 to 1
Localization criterion                   ... FOSTER-BOYS (AUGMENTED HESSIAN)
Doing the dipole integrals     ... o.k.
Initial value of the localization sum :    74.555709
ITERATION   0 : L=   74.5557090824 DL=  4.25e-08 (AVERGE_DL)=    0.0002062422 
LOCALIZATION SUM CONVERGED

------------------------------------------------------
AUGMENTED HESSIAN OPTIMIZATION OF FOSTER-BOYS ORBITALS
------------------------------------------------------

Spin operator:           0
Orbital window:          0 to 1
Number of iterations:    128
Gradient tolerance:      2.000e-07
Number of pairs:         1
Davidson threshold:      2000
Diagonalization method:  LAPACK
Iter:    0   L: 74.5557090824   Grad. norm: 4.913850e-19
   *** Likely close to a maximum now. ***
       Augmented Hessian eigenvalues:  7.86e-40 -3.07e+02
Iter:    1   L: 74.5557090824   Grad. norm: 5.293956e-23
LOCALIZATION HAS CONVERGED.

Eigenvalues of the Hessian:
  0 -3.071e+02


--------------------------------------------------------------------------------
                    LOCALIZED MOLECULAR ORBITAL COMPOSITIONS
--------------------------------------------------------------------------------

The Mulliken populations for each LMO on each atom are computed
The LMO`s will be ordered according to atom index and type
  (A) Strongly localized MO`s have populations of >=0.950 on one atom
  (B) Two center bond orbitals have populations of >=0.850 on two atoms
  (C) Other MO`s are considered to be `delocalized`

FOUND  -   2 strongly local MO`s
       -   0 two center bond MO`s
       -   0 significantly delocalized MO`s

Rather strongly localized orbitals:
MO   1:   3O  -   0.999185
MO   0:   0O  -   0.999750
Localized MO's were stored in: frag62.loc

Warning: reference  - re-canonicalizations have been set to INT 1 VIRT 1
Warning: internal orbitals are localized - no re-canonicalization of internal orbitals
Warning: UsePNO is turned on - no re-canonicalization of internal and virtual orbitals

--------------------------
CLOSED-SHELL FOCK OPERATOR
--------------------------

Restoring SHARK [2] ... ok
Entering RIJCOSX section for the Fock matrix
Trying to retrieve the full J-matrix              ... done
Updating the Fock matrix                          ... done
Making the frozen core Coulomb matrix             ... SHARKdone
Retrieving the full K-matrix                      ... done
Calculating the frozen core K-matrix              ... done
Updating the Fock matrix                          ... done
Time needed for Fock operator              ...            0.443 sec
Reference energy                           ...   -152.119560115

--------------
DLPNO SETTINGS (2015 fully linear scaling implementation)
--------------

TCutMKN:           1.000e-03
TCutPAO:           1.000e-03
TCutPNO:           1.000e-07
TCutPNOSingles:    3.000e-09
TCutEN:            9.700e-01
TCutPAOExt:        1.000e-01
TCutPairs:         1.000e-05
TCutPre:           1.000e-07
TCutOSV:           1.000e-06
TCutDOij:          1.000e-05
TCutDO:            5.000e-03
TCutC:             1.000e-04
TCutCPAO:          1.000e-03
TCutCMO:           1.000e-03
TScaleDOMP2PreScr: 2.000e+00
TScaleMKNMP2PreScr:1.000e+01
TScalePNOMP2PreScr:1.000e+00
PAO overlap thresh 1.000e-08
Using PNOs for Singles Fock computation
Use new domains
Use fully linear algorithm
TCutTNO:           1.000e-09
TCutMP2Pairs:      1.000e-06
TCutDOStrong:      1.000e-02
TCutDOWeak:        2.000e-02
TCutMKNStrong:     1.000e-02
TCutMKNWeak:       1.000e-01
NTCutTNO:          1

--------------------------
Mulliken population of the LMOs            ... ok
Performing proximity check                 ... 
 found 2 problematic atoms
   => In all likelyhood your results will be entirely fine!
   => In case you don't want to trust it, decrease TCutMKN to below 0.00035647.
   => but note that this is probably not necessary but will increase execution time
Calculating differential overlap integrals ... ok

--------------------------
ELECTRON PAIR PRESCREENING
--------------------------

Dipole-based pair screening          .... used

   TCutDOij = 1.000000e-05
   TCutPre  = 1.000000e-07
   .... Finished loop over pairs
Total time spent in the prescreening                  ...     0.000 sec
Time for pair-prescreening                            ...     0.000 sec
Time for pairlist organization                        ...     0.000 sec
Number of pairs skipped by pre-screening              ... 0
sum of pair energies estimated for screened out pairs ...       0.000000000000 Eh
Thresholds for map construction and integral transformation for crude MP2:
   TCutMKN                    ...     1.0e-02
   TCutDO                     ...     1.0e-02
   TCutPairs                  ...     1.0e-05
   TCutPNO_CrudeMP2           ...     1.0e-07
   TCutPNOSingles_CrudeMP2    ...     3.0e-09
--------------------------------
LOCAL RI TRANSFORMATION (IAVPAO)
--------------------------------

Orbital window:       2 to 9
Number of PAOs:     184
Basis functions:    184 (64 shells)
Aux. functions:    1000 (248 shells)
Use SHARK:           on

Processing maps (0.0 sec)
Average map sizes:
   Aux shells -> MOs               8.0
   Aux shells -> PAOs            184.0
   MOs        -> AO shells        61.1
   PAOs       -> AO shells        64.0

Calculating integrals (0.1 sec, 11.242 MB)
Sorting integrals (0.0 sec, 11.231 MB)
Total time for the integral transformation: 0.1 sec
--------------------------------
INITIAL GUESS AND PNO GENERATION
--------------------------------

Populations of internal orbitals onto Fragments:
   2:      1.006    0.000  assigned to fragment   1
   3:      1.000    0.000  assigned to fragment   1
   4:      0.000    1.005  assigned to fragment   2
   5:      0.000    1.007  assigned to fragment   2
   6:      1.000    0.000  assigned to fragment   1
   7:      1.000    0.000  assigned to fragment   1
   8:      0.000    1.000  assigned to fragment   2
   9:      0.000    1.000  assigned to fragment   2

Summary assignment:
   4 orbitals assigned to fragment   1
   4 orbitals assigned to fragment   2

PNO truncation parameters                   .... 
    PAOOverlapThresh   =        1.000e-08

    TCutPairs          =        1.000e-05
    TCutPNO            =        1.000e-07
    TCutPNOSingles     =        3.000e-09
    TCutMP2Pairs       =        1.000e-06
    TCutMKN            =        1.000e-02
    TCutDO             =        1.000e-02

Pair selection                          .... not used
Type of local MP2 treatment                 .... semi-local MP2
Strategy for PNO selection                  .... occupation number selection
Pair density normalization                  .... MP2 norm
Spin component scaling                      .... not used

   .... Finished loop over pairs
Making pair pair interaction lists          ... 
Pair pair interaction statistics
Nr. of pairs:                        22
Nr. of Singles:                       8
Average (per pair domain)               (Total):
Atoms:                              5.4 (6)
PNOs:                               5.4
PAOs:                  169.4 (184)
Aux functions:                    387.6 (1000)
AuxAtoms:                           1.9 (6)
EXT1 basis functions:             184.0 (184)
Interacting Pairs:                  2.0 (22)
Interacting Pairs - Singles:        8.0 (8)
Average (per Single domain):
Atoms (Singles):                    5.1 (6)
PNOs (Singles):                    73.6
Basis functions (Singles):        161.0 (184)
Interacting Singles - Singles:      8.0 (8)
Interacting Singles - Pairs:       22.0 (22)
done

                       ===========================
                         22 OF   36 PAIRS ARE KEPT CCSD PAIRS
                         14 OF   36 PAIRS ARE KEPT MP2 PAIRS FOR (T)
                          0 OF   36 PAIRS ARE SKIPPED
                       ===========================

Total time spent in the initial guess                 ...     0.094 sec
Pair domain construction                              ...     0.000 sec
Time for calculating MP2 Guess in PAOs                ...     0.031 sec
     Time for Local metric generation                 ...     0.000 sec
     Time for Local Kij generation                    ...     0.011 sec
     Time for Local MP2 calculation                   ...     0.001 sec
     Time for LMP2 iterations                         ...     0.000 sec
          prep and other time                         ...     0.000 sec
          Time for sigma                              ...     0.000 sec (    0.000 sec in k-loop)
          Time for DIIS                               ...     0.000 sec
          Time for Update                             ...     0.000 sec
      Time for LMP2 I/O                               ...     0.000 sec
      Time for Initial PNO                            ...     0.000 sec
Time for generating PNOs                              ...     0.005 sec
Time for pairlist organization                        ...     0.000 sec
Time for pair-pair interaction organization           ...     0.001 sec
Size of the domain VM**-1/2 file                      ...         0 MB
SL-MP2 correlation energy (all non-screened pairs)    ...      -0.522697947450 Eh

Initial PNO correlation energy                        ...      -0.522551058025 Eh
sum of pair energies prescreened and skipped MP2 pairs...       0.000000000000 Eh
sum of pair energies of crude MP2 skipped pairs only  ...       0.000000000000 Eh
sum of MP2 pair energies for pairs that were not kept ...      -0.000080009200 Eh
sum of PNO error estimates for the kept pairs         ...      -0.000066880226 Eh
                                                          --------------------
sum of all corrections                                         -0.000146889426
Initial total correlation energy                               -0.522697947450
Thresholds for map construction and integral transformation for fine MP2 and CCSD(T) calculation:
   TCutMKN   ...     1.0e-03
   TCutDO    ...     5.0e-03
   TCutPairs ...     1.0e-05
   TCutCMO   ...     1.0e-03
   TCutCPAO  ...     1.0e-03

Thresholds for map construction and integral transformation for strong Triples:
   TCutMKN   ...     1.0e-02
   TCutDO    ...     1.0e-02
   TCutCMO   ...     1.0e-03
   TCutCPAO  ...     1.0e-03

Thresholds for map construction and integral transformation for weak Triples:
   TCutMKN   ...     1.0e-01
   TCutDO    ...     2.0e-02
   TCutCMO   ...     1.0e-03
   TCutCPAO  ...     1.0e-03

--------------------------------
LOCAL RI TRANSFORMATION (IAVPAO)
--------------------------------

Orbital window:       2 to 9
Number of PAOs:     184
Basis functions:    184 (64 shells)
Aux. functions:    1000 (248 shells)
Use SHARK:           on

Processing maps (0.0 sec)
Average map sizes:
   Aux shells -> MOs               8.0
   Aux shells -> PAOs            184.0
   MOs        -> AO shells        61.1
   PAOs       -> AO shells        64.0

Calculating integrals (0.1 sec, 11.242 MB)
Sorting integrals (0.0 sec, 11.231 MB)
Total time for the integral transformation: 0.1 sec
--------------------------------
INITIAL GUESS AND PNO GENERATION
--------------------------------

Populations of internal orbitals onto Fragments:
   2:      1.006    0.000  assigned to fragment   1
   3:      1.000    0.000  assigned to fragment   1
   4:      0.000    1.005  assigned to fragment   2
   5:      0.000    1.007  assigned to fragment   2
   6:      1.000    0.000  assigned to fragment   1
   7:      1.000    0.000  assigned to fragment   1
   8:      0.000    1.000  assigned to fragment   2
   9:      0.000    1.000  assigned to fragment   2

Summary assignment:
   4 orbitals assigned to fragment   1
   4 orbitals assigned to fragment   2

PNO truncation parameters                   .... 
    ScaleTCutPNO       =        1.000e-02
    PAOOverlapThresh   =        1.000e-08

    TCutPairs          =        1.000e-05
    TCutPNO            =        1.000e-07
    TCutPNOSingles     =        3.000e-09
    TCutMP2Pairs       =        1.000e-06
    TCutMKN            =        1.000e-03
    TCutDO             =        5.000e-03

Pair selection                          .... not used
Type of local MP2 treatment                 .... full local PMP2
Strategy for PNO selection                  .... occupation number selection
Pair density normalization                  .... MP2 norm
Spin component scaling                      .... not used

PASS-1: Formation of initial guess LMP2 amplitudes
Initial amplitudes guess done. Entering LMP2 iteration loop:
   Max. no of iterations          ...  50
   Energy convergence tolerance   ...    1.0e-07
   Residual convergence tolerance ...    5.0e-07
   Fock matrix cutoff             ...    1.0e-05 Eh
   DIIS convergence acceleration parameters:
        Max # vectors in DIIS     ... 7
        Start iteration of DIIS   ... 0
        Levelshift                ... 2.000e-01
        Damping factor 1          ... 5.000e-01
        Damping factor 2          ... 1.000e+00
   L-MP2 PNO cut-off              ...   1.0e-09
   L-MP2 PNO cut-off (core)       ...   1.0e-11
468 of 504 terms in k-loop evaluated.

                           *** Turning on DIIS ***
LMP2-Iter=   0:  ELMP2= -0.532667457129  DE=   1.0e-02 RMAX=   4.9e-03
LMP2-Iter=   1:  ELMP2= -0.538075127615  DE=   5.4e-03 RMAX=   2.0e-03
LMP2-Iter=   2:  ELMP2= -0.538863940600  DE=   7.9e-04 RMAX=   4.0e-04
LMP2-Iter=   3:  ELMP2= -0.538968215851  DE=   1.0e-04 RMAX=   1.4e-04
LMP2-Iter=   4:  ELMP2= -0.538977163451  DE=   8.9e-06 RMAX=   2.0e-05
LMP2-Iter=   5:  ELMP2= -0.538977152519  DE=   1.1e-08 RMAX=   6.0e-06
LMP2-Iter=   6:  ELMP2= -0.538977112745  DE=   4.0e-08 RMAX=   6.6e-07
LMP2-Iter=   7:  ELMP2= -0.538977105039  DE=   7.7e-09 RMAX=   2.1e-07
LMP2-Iter=   8:  ELMP2= -0.538977108498  DE=   3.5e-09 RMAX=   2.0e-08 => CONVERGED
PASS-2: Formation of Pair natural orbitals
   .... Finished loop over pairs
Process  1:   (    4,     2):  99.242441253619 %
Process  1:   (    4,     3):  97.696174383392 %
Process  1:   (    4,     4):  99.994143424440 %
Process  1:   (    4):  99.999925529995 % (IJ)
Process  2:   (    5,     2):  98.617129605391 %
Process  2:   (    5,     3):  97.763514772215 %
Process  2:   (    5,     4):  99.995972005451 %
Process  3:   (    5,     5):  99.994156056771 %
Process  3:   (    6,     2):  99.994937271937 %
Process  3:   (    6,     3):  99.994957427056 %
Process  3:   (    5):  99.999928202944 % (IJ)
Process  4:   (    6,     4):  99.219715336132 %
Process  4:   (    6,     5):  98.871617793203 %
Process  4:   (    6,     6):  99.995088199101 %
Process  4:   (    6):  99.999893223797 % (IJ)
Process  5:   (    7,     2):  99.995635683375 %
Process  5:   (    7,     3):  99.995632145381 %
Process  5:   (    7,     4):  99.736620348375 %
Process  6:   (    7,     5):  99.199825957585 %
Process  6:   (    7,     6):  99.993817413744 %
Process  6:   (    7,     7):  99.995663732336 %
Process  6:   (    7):  99.999917652137 % (IJ)
Process  7:   (    8,     2):  99.521281233712 %
Process  7:   (    8,     3):  98.173154887860 %
Process  7:   (    8,     4):  99.995095217131 %
Process  8:   (    8,     5):  99.995085333420 %
Process  8:   (    8,     6):  99.374031857214 %
Process  8:   (    8,     7):  99.997327526366 %
Process  9:   (    8,     8):  99.995120658708 %
Process  9:   (    9,     2):  99.073997873846 %
Process  9:   (    9,     3):  98.806254118850 %
Process  9:   (    8):  99.999899952197 % (IJ)
Process 10:   (    9,     4):  99.995627220135 %
Process 10:   (    9,     5):  99.995642279072 %
Process 10:   (    9,     6):  99.258031914285 %
Process 11:   (    9,     7):  99.491554280998 %
Process 11:   (    9,     8):  99.993796466282 %
Process 11:   (    9,     9):  99.995609157170 %
Process 11:   (    9):  99.999917231052 % (IJ)

  - Occupation number analysis for DOUBLES-pairs:

   Orbital Indices     % trace(D) 
  -----------------------------------
Process  0:   (    2,     2):  99.994055970895 %
Process  0:   (    3,     2):  99.995761309841 %
Process  0:   (    3,     3):  99.994725945277 %

  - Occupation number analysis for SINGLES-pairs:

   Orbital Index       % trace(D) 
  -----------------------------------
Process  0:   (    2):  99.999920788883 % (IJ)
Process  0:   (    3):  99.999899609955 % (IJ)

 PNO Occupation Number Statistics: 
  | Av. % of trace(Dij) retained        ...  99.553977668349
  | sigma^2 in % of trace(Dij) retained ...   4.24e-01
  | Av. % of trace(Di) retained         ...  99.999912773870
  | sigma^2 in % of trace(Di) retained  ...   1.54e-10
 Distributions of % trace(Dij) recovered:
  |       >= 99.9  ...    21 ( 58.3 % of all pairs)
  |   [90.0, 99.0) ...     6 ( 16.7 % of all pairs)
  |   [99.0, 99.9) ...     9 ( 25.0 % of all pairs)
 Distributions of % trace(Di) recovered :
  |       >= 99.9  ...     8 (100.0 % of all I-pairs )

Making pair pair interaction lists          ... 
Pair pair interaction statistics
Nr. of pairs:                        22
Nr. of Singles:                       8
Average (per pair domain)               (Total):
Atoms:                              6.0 (6)
PNOs:                               5.5
PAOs:                  184.0 (184)
Aux functions:                    530.2 (1000)
AuxAtoms:                           3.1 (6)
EXT1 basis functions:             184.0 (184)
Interacting Pairs:                  2.0 (22)
Interacting Pairs - Singles:        8.0 (8)
Average (per Single domain):
Atoms (Singles):                    6.0 (6)
PNOs (Singles):                    76.5
Basis functions (Singles):        184.0 (184)
Interacting Singles - Singles:      8.0 (8)
Interacting Singles - Pairs:       22.0 (22)
done

                       ===========================
                         22 OF   36 PAIRS ARE KEPT
                       ===========================

Total time spent in the initial guess                 ...     0.390 sec
Pair domain construction                              ...     0.000 sec
Time for calculating MP2 Guess in PAOs                ...     0.074 sec
     Time for Local metric generation                 ...     0.000 sec
     Time for Local Kij generation                    ...     0.044 sec
     Time for Local MP2 calculation                   ...     0.001 sec
     Time for LMP2 iterations                         ...     0.170 sec
          prep and other time                         ...     0.002 sec
          Time for sigma                              ...     0.069 sec (    0.059 sec in k-loop)
          Time for DIIS                               ...     0.077 sec
          Time for Update                             ...     0.005 sec
      Time for LMP2 I/O                               ...     6.894 sec
      Time for Initial PNO                            ...     0.018 sec
Time for generating PNOs                              ...     0.002 sec
Time for pairlist organization                        ...     0.000 sec
Time for pair-pair interaction organization           ...     0.001 sec
Size of the domain VM**-1/2 file                      ...       167 MB
Size of the P2V_red file                              ...         1 MB
L-MP2 correlation energy (all non-screened pairs)     ...      -0.538977108498 Eh
L-MP2 PNO error correction                            ...      -0.000000683934 Eh
                                                          --------------------
Initial total L-MP2 energy (non-screened pairs)       ...      -0.538977792432 Eh

Initial PNO correlation energy                        ...      -0.538837589469 Eh
sum of pair energies estimated for screened out pairs ...       0.000000000000 Eh
sum of MP2 pair energies for pairs that were not kept ...      -0.000091277112 Eh
sum of PNO error estimates for the kept pairs         ...      -0.000068784458 Eh
                                                          --------------------
sum of all corrections                                         -0.000160061570
Initial total correlation energy                               -0.538997651039
Thresholds for map construction and integral transformation for fine MP2 and CCSD(T) calculation:
   TCutMKN   ...     1.0e-03
   TCutDO    ...     5.0e-03
   TCutPairs ...     1.0e-05
   TCutCMO   ...     1.0e-03
   TCutCPAO  ...     1.0e-03

Time for aux screen maps:            0.001
Time for maps after fine MP2:            0.003
-----------------------------
LOCAL RI TRANSFORMATION (IJV)
-----------------------------

Orbital window:       2 to 9
Basis functions:    184 (64 shells)
Aux. functions:    1000 (248 shells)
Use SHARK:           on

Processing maps (0.0 sec)
Average map sizes:
   Aux shells -> MOs(i)            7.1
   Aux shells -> MOs(j)            8.0
   MOs        -> AO shells        61.1

Calculating integrals (0.1 sec, 0.452 MB)
Sorting integrals (0.0 sec, 0.441 MB)
Total time for the integral transformation: 0.1 sec
--------------------------------
LOCAL RI TRANSFORMATION (VABPAO)
--------------------------------

Number of PAOs:     184
Basis functions:    184 (64 shells)
Aux. functions:    1000 (248 shells)
Use SHARK:           on

Processing maps (0.0 sec)
Average map sizes:
   Aux shells -> PAOs            184.0
   PAOs       -> AO shells        64.0

Calculating integrals (0.2 sec, 258.312 MB)
Finished
Precomputing pair/pair interactions        ... 

-------------------------------------
Pair Pair Term precalculation with     
RI-(ij|mn) and (im|jn) transformation  
ON THE FLY                             
-------------------------------------

Max core memory to be used                    ...   4000 MB
Number of batches needed                      ...      1 
Average Memory used per batch                 ...      0 MB
Pair Pair terms per batch                     ...      0 
Total number of pairs                         ...     22 
Memory needed for all IJPairs                 ...      0 MB
   IBatch   1 (of   1)              ... done (    0.896 sec)
Total EXT                           ...           0.896 sec

Detailed timings: 
Reading/generating VMAT                    ...          0.001 sec
Reading 3-index integrals                  ...          0.084 sec
Sorting of data                            ...          0.262 sec
Get Pair1 ...          0.000 sec
Get Pair2 ...          0.000 sec
Get Pair3 ...          0.000 sec
Get Pair4 ...          0.000 sec
Get Pair5 ...          0.000 sec
Get Pair6 ...          0.000 sec
Orthogonalization of the 3-index integrals ...          0.022 sec
Multipl. of 3-index integrals              ...          0.433 sec
GetNewMat              ...          0.011 sec
Generating IJMN (orthog. + mult.)          ...          0.736 sec
Generating IJMN (orthog. + mult.) 1         ...          0.697 sec
Generating IJMN (orthog. + mult.) 2         ...          0.000 sec
Generating IJMN (orthog. + mult.) 3         ...          0.019 sec
Generating IJMN (orthog. + mult.) 4         ...          0.020 sec
Generating IMJN (orthog. + mult.)          ...          0.042 sec

done (    0.958 sec)
---------------------
RI-PNO TRANSFORMATION
---------------------

Total Number of PNOs                   ...  1228
Average number of PNOs per pair        ...    55
Maximal number of PNOs per pair        ...    64
   #pairs with  1 -  5 PNOs   :    0
   #pairs with  6 - 10 PNOs   :    2
   #pairs with 11 - 15 PNOs   :    0
   #pairs with 16 - 20 PNOs   :    0
   #pairs with 21 - 25 PNOs   :    0
   #pairs with 26 - 30 PNOs   :    0
   #pairs with 31 - 35 PNOs   :    0
   #pairs with 36 - 40 PNOs   :    0
   #pairs with 41 - 45 PNOs   :    0
   #pairs with 46 - 50 PNOs   :    0
   #pairs with 56 - 60 PNOs   :    8
   #pairs with 61 - 65 PNOs   :   12

Generation of (ij|ab)[P] integrals            ... on
Generation of (ia|bc)[P],(ja|bc)[P] integrals ... on
Storage of 3 and 4 external integrals         ... on
Generation of ALL (ka|bc)[P] integrals        ... on
Keep RI integrals in memory                   ... off
PNO Integral generation
Max core memory to be used                    ...   4000 MB
Number of batches needed                      ...      1 
Memory available for IJPairs                  ...   3940 MB
Memory needed per IJPair                      ...     21 MB
Total number of pairs                         ...     22 
Memory needed for all IJPairs                 ...    466 MB

Ibatch:  1 (of  1)
Starting 2-4 index PNO integral generation ... done

Timings:
Total PNO integral transformation time     ...          1.535 sec
Reading/generating VMAT                    ...          0.001 sec
Reading 3-index integrals                  ...          0.082 sec
Sorting of data (for reading)              ...          0.030 sec
      Sorting of data (for reading) 1      ...          0.000 sec
[...]
DECOMPOSITION OF CCSD STRONG PAIRS INTO      
    DOUBLE EXCITATION TYPES (Eh)             
---------------------------------------------

Foster-Boys localization is used for localizing PNOs

Decomposition of the intra-fragment strong pairs energies .. 

FRAGMENT    1 =  -0.273983142228 Eh ...   

----------------------------------------------------------------------------------------------------------------------------------------
    i   j  type :        EP         (%)         Direct-            Single             Double         PNO in Mulliken                   
                                           Double Excitation     Charge-Transfer    Charge-Transfer  population range                   
                                                                                                      <0.7   >0.7                       
----------------------------------------------------------------------------------------------------------------------------------------
    7     7  :     -0.031998824 ( 11.68)      -0.031998824      0.000000000      0.000000000       0      57
    6     6  :     -0.031560709 ( 11.52)      -0.031560709      0.000000000      0.000000000       0      56
    3     2  :     -0.029667574 ( 10.83)      -0.029667574      0.000000000      0.000000000       0      63
    7     2  :     -0.026440416 (  9.65)      -0.026440416      0.000000000      0.000000000       0      64
    7     3  :     -0.026436372 (  9.65)      -0.026436372      0.000000000      0.000000000       0      64
    3     3  :     -0.026358150 (  9.62)      -0.026358150      0.000000000      0.000000000       0      57
    2     2  :     -0.026350269 (  9.62)      -0.026350269      0.000000000      0.000000000       0      57
    6     2  :     -0.026272892 (  9.59)      -0.026272892      0.000000000      0.000000000       0      63
    6     3  :     -0.026267573 (  9.59)      -0.026267573      0.000000000      0.000000000       0      63
    7     6  :     -0.022630364 (  8.26)      -0.022630364      0.000000000      0.000000000       0      64

Overall summary of excitation mechanisms for this fragment:
  Total direct double excitations (i->a(ij))(j->b(ij))                      -0.273983142 (100.000 per cent)
  Total single charge-transfer    (i->a(ij))(j->b(X)) & (i->a(X))(j->b(ij))  0.000000000 (-0.000 per cent)
  Total double charge transfer    (i->a(X))(j->b(X))                         0.000000000 (-0.000 per cent)
                                                       -----------------------------
  Sum                                                  -0.273983142
  Consistency check                                    -0.273983142
 done 
 
FRAGMENT    2 =  -0.273936912123 Eh ...   

----------------------------------------------------------------------------------------------------------------------------------------
    i   j  type :        EP         (%)         Direct-            Single             Double         PNO in Mulliken                   
                                           Double Excitation     Charge-Transfer    Charge-Transfer  population range                   
                                                                                                      <0.7   >0.7                       
----------------------------------------------------------------------------------------------------------------------------------------
    9     9  :     -0.031938476 ( 11.66)      -0.031938476      0.000000000      0.000000000       0      57
    8     8  :     -0.031576912 ( 11.53)      -0.031576912      0.000000000      0.000000000       0      56
    5     4  :     -0.029701869 ( 10.84)      -0.029701869      0.000000000      0.000000000       0      63
    9     4  :     -0.026429705 (  9.65)      -0.026429705      0.000000000      0.000000000       0      64
    9     5  :     -0.026415376 (  9.64)      -0.026415376      0.000000000      0.000000000       0      64
    4     4  :     -0.026347467 (  9.62)      -0.026347467      0.000000000      0.000000000       0      57
    5     5  :     -0.026346785 (  9.62)      -0.026346785      0.000000000      0.000000000       0      57
    8     4  :     -0.026296261 (  9.60)      -0.026296261      0.000000000      0.000000000       0      63
    8     5  :     -0.026284765 (  9.60)      -0.026284765      0.000000000      0.000000000       0      63
    9     8  :     -0.022599296 (  8.25)      -0.022599296      0.000000000      0.000000000       0      64

Overall summary of excitation mechanisms for this fragment:
  Total direct double excitations (i->a(ij))(j->b(ij))                      -0.273936912 (100.000 per cent)
  Total single charge-transfer    (i->a(ij))(j->b(X)) & (i->a(X))(j->b(ij))  0.000000000 (-0.000 per cent)
  Total double charge transfer    (i->a(X))(j->b(X))                         0.000000000 (-0.000 per cent)
                                                       -----------------------------
  Sum                                                  -0.273936912
  Consistency check                                    -0.273936912
 done 
 
 

Decomposition of the inter-fragments strong pairs energies .. 

FRAGMENTS    2,1 =  -0.000043855362 Eh ...   

------------------------------------------------------------------------------------------------------------------------------------------------
    i   j  type :         EP        (%)         Dipole-            Cross              Charge        Charge          PNO in Mulliken            
                                                 Dipole           Excitation          Transfer      Transfer        population range            
                                                                                                                      <0.7  >0.7                
------------------------------------------------------------------------------------------------------------------------------------------------
    9     3  :     -0.000029415 ( 67.07)      -0.000028907     -0.000000149     -0.000000234     -0.000000125       0       6
    5     3  :     -0.000014441 ( 32.93)      -0.000014094     -0.000000117     -0.000000113     -0.000000117       0       6
----------------------------------------------------------------------------------------------------------------------------------------------------------
                   -0.000043855               -0.000043001     -0.000000266     -0.000000347     -0.000000242 
                                                 ( 98.05%)        (  0.61%)        (  0.79%)        (  0.55%)
----------------------------------------------------------------------------------------------------------------------------------------------------------

Overall summary of excitation mechanisms for this fragment pair:
  Total local dipole excitations    (i->a(i))(j->b(j)) -0.000043001 (98.051 per cent)
  Total Cross excitations           (i->a(j))(j->b(i)) -0.000000266 ( 0.606 per cent)
  Total Charge transfer excitations (i->a(i))(j->b(i)) -0.000000347 ( 0.790 per cent)
  Total Charge transfer excitations (i->a(j))(j->b(j)) -0.000000242 ( 0.552 per cent)
                                                       -----------------------------
  Sum                                                  -0.000043855
  Consistency check                                    -0.000043855
 done 
 
 
Summary Strong Pairs Energy Decomposition    
 
Intra fragment contributions: 
INTRA Fragment 1                       -0.273983142 
INTRA Fragment 2                       -0.273936912 

Charge transfer contributions: 
Charge Transfer 1 to 2                 -0.000000347 
Charge Transfer 2 to 1                 -0.000000242 

Dispersion contributions: 
Dispersion  2,1                        -0.000043267 

Singles contributions:                   
Singles energy                         -0.000001188 
 

------------------------------------------------- 
FINAL SUMMARY DLPNO-CCSD ENERGY DECOMPOSITION (Eh)
------------------------------------------------- 
 
Intrafragment REF. energy:                   
Intra fragment   1 (REF.)              -76.058932032     
Intra fragment   2 (REF.)              -76.059007139     

Interaction of fragments  2 and  1:  
Electrostatics (REF.)                  -0.001598411 
Exchange (REF.)                        -0.000022534 
Dispersion (strong pairs)              -0.000043267 
Dispersion (weak pairs)                -0.000092417 

Sum of non dispersive correlation terms: 
Non dispersion (strong pairs)          -0.547921831  
Non dispersion (weak pairs)            -0.000067645  

#Time for LED analysis ..       1.4 (sec)



--------------------------------------------------------------------------------
                                    TIMINGS
--------------------------------------------------------------------------------


Total execution time                   ...       28.446 sec

Localization of occupied MO's          ...        0.251 sec (  0.9%)
Fock Matrix Formation                  ...        0.443 sec (  1.6%)
Global overlap, Fock, MKN matrices     ...        0.169 sec (  0.6%)
Differential overlap integrals         ...        0.614 sec (  2.2%)
Organizing maps                        ...        0.007 sec (  0.0%)
RI 3-index integral generations        ...        0.600 sec (  2.1%)
RI-PNO integral transformation         ...        2.524 sec (  8.9%)
Initial Guess                          ...        0.490 sec (  1.7%)
DIIS Solver                            ...        0.135 sec (  0.5%)
State Vector Update                    ...        0.003 sec (  0.0%)
Sigma-vector construction              ...       19.327 sec ( 67.9%)
  <D|H|D>(0-ext)                       ...        0.047 sec (  0.2% of sigma)
  <D|H|D>(2-ext Fock)                  ...        0.002 sec (  0.0% of sigma)
  <D|H|D>(2-ext)                       ...        0.219 sec (  1.1% of sigma)
  <D|H|D>(4-ext)                       ...        3.797 sec ( 19.6% of sigma)
  <D|H|D>(4-ext-corr)                  ...       11.577 sec ( 59.9% of sigma)
  CCSD doubles correction              ...        0.008 sec (  0.0% of sigma)
  <S|H|S>                              ...        0.107 sec (  0.6% of sigma)
  <S|H|D>(1-ext)                       ...        0.010 sec (  0.0% of sigma)
  <S|H|D>(3-ext)                       ...        0.061 sec (  0.3% of sigma)
  Fock-dressing                        ...        0.747 sec (  3.9% of sigma)
  Singles amplitudes                   ...        0.045 sec (  0.2% of sigma)
  (ik|jl)-dressing                     ...        0.042 sec (  0.2% of sigma)
  (ij|ab),(ia|jb)-dressing             ...        0.108 sec (  0.6% of sigma)
  Pair energies                        ...        0.002 sec (  0.0% of sigma)
Total Time for computing (T)           ...        2.391 sec (  8.4% of ALL)
Local Energy Decomposition             ...        1.435 sec (  5.0% of ALL)


Maximum memory used throughout the entire MDCI-calculation: 366.6 MB

-------------------------   --------------------
FINAL SINGLE POINT ENERGY      -152.685198539209
-------------------------   --------------------


                            ***************************************
                            *     ORCA property calculations      *
                            ***************************************


  WARNING: The energy has been calculated at the MDCI level but the densities
           used in the property calculations are still SCF densities
           MDCI response densities have not been calculated 
           use %mdci Density linearized end
           or  %mdci Density unrelaxed end
           or  %mdci Density orbopt end

                                    ---------------------
                                    Active property flags
                                    ---------------------
   (+) Dipole Moment


------------------------------------------------------------------------------
                       ORCA ELECTRIC PROPERTIES CALCULATION
------------------------------------------------------------------------------

Dipole Moment Calculation                       ... on
Quadrupole Moment Calculation                   ... off
Polarizability Calculation                      ... off
GBWName                                         ... frag62.gbw
Electron density                                ... frag62.scfp
The origin for moment calculation is the CENTER OF MASS  = ( 3.824165,  1.675658 -0.783338)

-------------
DIPOLE MOMENT
-------------
                                X             Y             Z
Electronic contribution:      0.09714      -0.10877       0.12434
Nuclear contribution   :     -0.48765       0.65145      -0.62914
                        -----------------------------------------
Total Dipole Moment    :     -0.39050       0.54268      -0.50479
                        -----------------------------------------
Magnitude (a.u.)       :      0.83774
Magnitude (Debye)      :      2.12937



--------------------
Rotational spectrum 
--------------------
 
Rotational constants in cm-1:     6.721585     0.086237     0.085953 
Rotational constants in MHz : 201508.043379  2585.328061  2576.799099 

 Dipole components along the rotational axes: 
x,y,z [a.u.] :     0.751688     0.362734    -0.072119 
x,y,z [Debye]:     1.910638     0.921998    -0.183312 

 

--------------------------------
SUGGESTED CITATIONS FOR THIS RUN
--------------------------------

Below you find a list of papers that are relevant to this ORCA run
We neither can nor want to force you to cite these paper, but we appreciate if you do
You receive ORCA, which is the product of a lot of hard work by many enthusiastic individuals, for free
The *only* thing we kindly ask in return is that you cite our papers,
We deeply appreciate it, if you show your appreciation for ORCA but *not* just citing the generic ORCA reference.

Please note that relegating all ORCA citations to the supporting information does *not* help us.
SI sections are not index - citations you put there will not count into our citation statistics
But we need these citations in order to attract the funding ressources that allow us to do what we are doing

Therefore, please consider citing at least a few of the papers listed below, if you are a happy ORCA user

In addition to the list printed below, the program has created the file frag62.bibtex that contains the list in bibtex format
In this format, you can import it easily in all common literature databanks and citation aid programs


List of essential papers. We consider these as the minimum necessary citations

  1. Neese,F.
     Software update: the ORCA program system, version 5.0
     WIRES Comput. Molec. Sci., 2022 12(1)e1606
     doi.org/10.1002/wcms.1606

List of papers to cite with high priority. The work reported in these papers was absolutely
necessary for this run to complete.
Our perspective: the developers of density functionals and basis sets usually get cited in chemistry papers
Good! But without the algorithms to do something with them, the functionals or basis sets would not do anything.
Hence, in our opinion, the algorithm design and method developments papers are equally worthy of getting cited

  1. Neese,F.
     An improvement of the resolution of the identity approximation for the formation of the Coulomb matrix
     J. Comp. Chem., 2003 24(14)1740-1747
     doi.org/10.1002/jcc.10318
  2. Neese,F.; Wennmohs,F.; Hansen,A.; Becker,U.
     Efficient, approximate and parallel Hartree-Fock and hybrid DFT calculations. A 'chain-of-spheres' algorithm for the Hartree-Fock exchange
     Chem. Phys., 2009 356(1-3)98-109
     doi.org/10.1016/j.chemphys.2008.10.036
  3. Neese,F.; Hansen,A.; Liakos,D.G.
     Efficient and accurate approximations to the local coupled cluster singles doubles method using a truncated pair natural orbital basis
     J. Chem. Phys., 2009 131 064103
     doi.org/10.1063/1.3173827
  4. Neese,F.; Wennmohs,F.; Hansen,A.
     Efficient and accurate local approximations to coupled-electron pair approaches: An attempt to revive the pair natural orbital method
     J. Chem. Phys., 2009 130 114108
     doi.org/10.1063/1.3086717
  5. Riplinger,C.; Neese,F.
     An efficient and near linear scaling pair natural orbital based local coupled cluster method
     J. Chem. Phys., 2013 138(3)Art. No. 034106
     doi.org/10.1063/1.4773581
  6. Riplinger,C.; Sandhoefer,B.; Hansen,A.; Neese,F.
     Natural triple excitations in local coupled cluster calculations with pair natural orbitals
     J. Chem. Phys., 2013 139(13)Art. No. 134101
     doi.org/10.1063/1.4821834
  7. Riplinger,C.; Pinski,P.; Becker,U.; Valeev,E.F.; Neese,F.
     Sparse maps-A systematic infrastructure for reduced-scaling electronic structure methods. II. Linear scaling domain based pair natural orbital coupled cluster theory
     J. Chem. Phys., 2016 144 
     doi.org/10.1063/1.4939030
  8. Schneider,W.B.; Bistoni,G.; Sparta,M.; Saitow,M.; Riplinger,C.; Auer,A.A.; Neese,F.
     Decomposition of Intermolecular Interaction Energies within the Local Pair Natural Orbital Coupled Cluster Framework
     J. Theo. Comp. Chem., 2016 12 4778-4792
     doi.org/10.1021/acs.jctc.6b00523
  9. Bistoni,G.; Riplinger,C.; Minenkov,Y.; Cavallo,L.; Auer,A.A.; Neese,F.
     Treating Subvalence Correlation Effects in Domain Based Pair Natural Orbital Coupled Cluster Calculations: An Out-of-the-Box Approach
     J. Theo. Comp. Chem., 2017 13 3220-3227
     doi.org/10.1021/acs.jctc.7b00352
 10. Guo,Y.; Riplinger,C.; Becker,U.; Liakos,D.G.; Minenkov,Y.; Cavallo,L.; Neese,F.
     Communication: An improved linear scaling perturbative triples correction for the domain based local pair-natural orbital based singles and doubles coupled cluster method DLPNO-CCSD(T)
     J. Chem. Phys., 2018 148 5
     doi.org/10.1063/1.5011798
 11. Helmich-Paris,B.; de Souza,B.; Neese,F.; Izsk,R.
     An improved chain of spheres for exchange algorithm
     J. Chem. Phys., 2021 155 104109
     doi.org/doi: 10.1063/5.0058766.

List of suggested additional citations. These are papers that are important in the 'surrounding' of 
of this run, or papers that preceded the highly important papers. If you like your results we are grateful for a citation.

  1. Izsak,R.; Neese,F.
     An overlap fitted chain of spheres exchange method
     J. Chem. Phys., 2011 135 144105
     doi.org/10.1063/1.3646921
  2. Izsak,R.; Hansen,A.; Neese,F.
     The resolution of identity and chain of spheres approximations for the LPNO-CCSD singles Fock term
     Molec. Phys., 2012 110 2413-2417
     doi.org/10.1080/00268976.2012.687466
  3. Neese,F.
     The ORCA program system
     WIRES Comput. Molec. Sci., 2012 2(1)73-78
     doi.org/10.1002/wcms.81
  4. Izsak,R.; Neese,F.; Klopper,W.
     Robust fitting techniques in the chain of spheres approximation to the Fock exchange: The role of the complementary space
     J. Chem. Phys., 2013 139 
     doi.org/10.1063/1.4819264
  5. Neese,F.
     Software update: the ORCA program system, version 4.0
     WIRES Comput. Molec. Sci., 2018 8(1)1-6
     doi.org/10.1002/wcms.1327
  6. Neese,F.; Wennmohs,F.; Becker,U.; Riplinger,C.
     The ORCA quantum chemistry program package
     J. Chem. Phys., 2020 152 Art. No. L224108
     doi.org/10.1063/5.0004608
  7. Bistoni,G.
     Finding chemical concepts in the Hilbert space: Coupled cluster analyses of noncovalent interactions
     WIRES Comput. Molec. Sci., 2020 10(3)e1442
     doi.org/10.1002/wcms.1442

Timings for individual modules:

Sum of individual times         ...       32.591 sec (=   0.543 min)
GTO integral calculation        ...        0.948 sec (=   0.016 min)   2.9 %
SCF iterations                  ...        2.715 sec (=   0.045 min)   8.3 %
MDCI module                     ...       28.929 sec (=   0.482 min)  88.8 %
                             ****ORCA TERMINATED NORMALLY****
TOTAL RUN TIME: 0 days 0 hours 0 minutes 33 seconds 141 msec