                                 *****************
                                 * O   R   C   A *
                                 *****************

                                            #,                                       
                                            ###                                      
                                            ####                                     
                                            #####                                    
                                            ######                                   
                                           ########,                                 
                                     ,,################,,,,,                         
                               ,,#################################,,                 
                          ,,##########################################,,             
                       ,#########################################, ''#####,          
                    ,#############################################,,   '####,        
                  ,##################################################,,,,####,       
                ,###########''''           ''''###############################       
              ,#####''   ,,,,##########,,,,          '''####'''          '####       
            ,##' ,,,,###########################,,,                        '##       
           ' ,,###''''                  '''############,,,                           
         ,,##''                                '''############,,,,        ,,,,,,###''
      ,#''                                            '''#######################'''  
     '                                                          ''''####''''         
             ,#######,   #######,   ,#######,      ##                                
            ,#'     '#,  ##    ##  ,#'     '#,    #''#        ######   ,####,        
            ##       ##  ##   ,#'  ##            #'  '#       #        #'  '#        
            ##       ##  #######   ##           ,######,      #####,   #    #        
            '#,     ,#'  ##    ##  '#,     ,#' ,#      #,         ##   #,  ,#        
             '#######'   ##     ##  '#######'  #'      '#     #####' # '####'        



                  #######################################################
                  #                        -***-                        #
                  #          Department of theory and spectroscopy      #
                  #    Directorship and core code : Frank Neese         #
                  #        Max Planck Institute fuer Kohlenforschung    #
                  #                Kaiser Wilhelm Platz 1               #
                  #                 D-45470 Muelheim/Ruhr               #
                  #                      Germany                        #
                  #                                                     #
                  #                  All rights reserved                #
                  #                        -***-                        #
                  #######################################################


                         Program Version 5.0  -  CURRENT   -
                                (GIT: $76ccee9ca$)
                ($2022-06-14 15:14:42 +0200 $)

                  !                     WARNING:                         !
                  !         This is a DEVELOPMENT version                !

                         (BUILD: $Mi 15. Jun 00:07:41 CEST 2022$)


 With contributions from (in alphabetic order):
   Daniel Aravena         : Magnetic Suceptibility
   Michael Atanasov       : Ab Initio Ligand Field Theory (pilot matlab implementation)
   Alexander A. Auer      : GIAO ZORA, VPT2 properties, NMR spectrum
   Ute Becker             : Parallelization
   Giovanni Bistoni       : ED, misc. LED, open-shell LED, HFLD
   Martin Brehm           : Molecular dynamics
   Dmytro Bykov           : SCF Hessian
   Vijay G. Chilkuri      : MRCI spin determinant printing, contributions to CSF-ICE
   Dipayan Datta          : RHF DLPNO-CCSD density
   Achintya Kumar Dutta   : EOM-CC, STEOM-CC
   Dmitry Ganyushin       : Spin-Orbit,Spin-Spin,Magnetic field MRCI
   Miquel Garcia          : C-PCM and meta-GGA Hessian, CC/C-PCM, Gaussian charge scheme
   Yang Guo               : DLPNO-NEVPT2, F12-NEVPT2, CIM, IAO-localization
   Andreas Hansen         : Spin unrestricted coupled pair/coupled cluster methods
   Benjamin Helmich-Paris : MC-RPA, TRAH-SCF, COSX integrals
   Lee Huntington         : MR-EOM, pCC
   Robert Izsak           : Overlap fitted RIJCOSX, COSX-SCS-MP3, EOM
   Marcus Kettner         : VPT2
   Christian Kollmar      : KDIIS, OOCD, Brueckner-CCSD(T), CCSD density, CASPT2, CASPT2-K, improved NEVPT2
   Simone Kossmann        : Meta GGA functionals, TD-DFT gradient, OOMP2, MP2 Hessian
   Martin Krupicka        : Initial AUTO-CI
   Lucas Lang             : DCDCAS
   Marvin Lechner         : AUTO-CI (C++ implementation), FIC-MRCC
   Dagmar Lenk            : GEPOL surface, SMD
   Dimitrios Liakos       : Extrapolation schemes; Compound Job, initial MDCI parallelization
   Dimitrios Manganas     : Further ROCIS development; embedding schemes
   Dimitrios Pantazis     : SARC Basis sets
   Anastasios Papadopoulos: AUTO-CI, single reference methods and gradients
   Taras Petrenko         : DFT Hessian,TD-DFT gradient, ASA, ECA, R-Raman, ABS, FL, XAS/XES, NRVS
   Peter Pinski           : DLPNO-MP2, DLPNO-MP2 Gradient
   Christoph Reimann      : Effective Core Potentials
   Marius Retegan         : Local ZFS, SOC
   Christoph Riplinger    : Optimizer, TS searches, QM/MM, DLPNO-CCSD(T), (RO)-DLPNO pert. Triples
   Tobias Risthaus        : Range-separated hybrids, TD-DFT gradient, RPA, STAB
   Michael Roemelt        : Original ROCIS implementation
   Masaaki Saitow         : Open-shell DLPNO-CCSD energy and density
   Barbara Sandhoefer     : DKH picture change effects
   Avijit Sen             : IP-ROCIS
   Kantharuban Sivalingam : CASSCF convergence, NEVPT2, FIC-MRCI
   Bernardo de Souza      : ESD, SOC TD-DFT
   Georgi Stoychev        : AutoAux, RI-MP2 NMR, DLPNO-MP2 response
   Willem Van den Heuvel  : Paramagnetic NMR
   Boris Wezisla          : Elementary symmetry handling
   Frank Wennmohs         : Technical directorship


 We gratefully acknowledge several colleagues who have allowed us to
 interface, adapt or use parts of their codes:
   Stefan Grimme, W. Hujo, H. Kruse, P. Pracht,  : VdW corrections, initial TS optimization,
                  C. Bannwarth, S. Ehlert          DFT functionals, gCP, sTDA/sTD-DF
   Ed Valeev, F. Pavosevic, A. Kumar             : LibInt (2-el integral package), F12 methods
   Garnet Chan, S. Sharma, J. Yang, R. Olivares  : DMRG
   Ulf Ekstrom                                   : XCFun DFT Library
   Mihaly Kallay                                 : mrcc  (arbitrary order and MRCC methods)
   Jiri Pittner, Ondrej Demel                    : Mk-CCSD
   Frank Weinhold                                : gennbo (NPA and NBO analysis)
   Christopher J. Cramer and Donald G. Truhlar   : smd solvation model
   Lars Goerigk                                  : TD-DFT with DH, B97 family of functionals
   V. Asgeirsson, H. Jonsson                     : NEB implementation
   FAccTs GmbH                                   : IRC, NEB, NEB-TS, DLPNO-Multilevel, CI-OPT
                                                   MM, QMMM, 2- and 3-layer-ONIOM, Crystal-QMMM,
                                                   LR-CPCM, SF, NACMEs, symmetry and pop. for TD-DFT,
                                                   nearIR, NL-DFT gradient (VV10), updates on ESD,
                                                   ML-optimized integration grids
   S Lehtola, MJT Oliveira, MAL Marques          : LibXC Library
   Liviu Ungur et al                             : ANISO software


 Your calculation uses the libint2 library for the computation of 2-el integrals
 For citations please refer to: http://libint.valeyev.net

 Your ORCA version has been built with support for libXC version: 5.2.2
 For citations please refer to: https://tddft.org/programs/libxc/

 This ORCA versions uses:
   CBLAS   interface :  Fast vector & matrix operations
   LAPACKE interface :  Fast linear algebra routines
   SCALAPACK package :  Parallel linear algebra routines
   Shared memory     :  Shared parallel matrices


================================================================================

----- Orbital basis set information -----
Your calculation utilizes the basis: aug-cc-pVTZ 
    H, B-Ne : Obtained from the ccRepo (grant-hill.group.shef.ac.uk/ccrepo) Feb. 2017
              R. A. Kendall, T. H. Dunning, Jr., R. J. Harrison, J. Chem. Phys. 96, 6796 (1992)
         He : Obtained from the ccRepo (grant-hill.group.shef.ac.uk/ccrepo) Feb. 2017
              D. E. Woon, T. H. Dunning, Jr., J. Chem. Phys. 100, 2975 (1994)
  Li-Be, Na : Obtained from the ccRepo (grant-hill.group.shef.ac.uk/ccrepo) Feb. 2017
              B. P. Prascher, D. E. Woon, K. A. Peterson, T. H. Dunning, Jr., A. K. Wilson, Theor. Chem. Acc. 128, 69 (2011)
         Mg : Obtained from the Peterson Research Group Website (tyr0.chem.wsu.edu/~kipeters) Feb. 2017
              B. P. Prascher, D. E. Woon, K. A. Peterson, T. H. Dunning, Jr., A. K. Wilson, Theor. Chem. Acc. 128, 69 (2011)
      Al-Ar : Obtained from the ccRepo (grant-hill.group.shef.ac.uk/ccrepo) Feb. 2017
              D. E. Woon, T. H. Dunning, Jr., J. Chem. Phys. 98, 1358 (1993)
      Sc-Zn : Obtained from the ccRepo (grant-hill.group.shef.ac.uk/ccrepo) Feb. 2017
              N. B. Balabanov, K. A. Peterson, J. Chem. Phys. 123, 064107 (2005)
              N. B. Balabanov, K. A. Peterson, J. Chem. Phys. 125, 074110 (2006)
      Ga-Kr : Obtained from the ccRepo (grant-hill.group.shef.ac.uk/ccrepo) Feb. 2017
              A. K. Wilson, D. E. Woon, K. A. Peterson, T. H. Dunning, Jr., J. Chem. Phys. 110, 7667 (1999)
     Ag, Au : Obtained from the Peterson Research Group Website (tyr0.chem.wsu.edu/~kipeters) Feb. 2017
              K. A. Peterson, C. Puzzarini, Theor. Chem. Acc. 114, 283 (2005)

----- AuxJ basis set information -----
----- AuxC basis set information -----
================================================================================
                                        WARNINGS
                       Please study these warnings very carefully!
================================================================================


WARNING: Post HF methods need fully converged wavefunctions
  ===> : Setting SCFConvForced true
         You can overwrite this default with %scf ConvForced false 


WARNING: MDCI localization with Augmented Hessian Foster-Boys
  ===> : Switching off randomization!

INFO   : the flag for use of the SHARK integral package has been found!

================================================================================
                                       INPUT FILE
================================================================================
NAME = frag42.inp
|  1> ! DLPNO-CCSD(T1) aug-cc-pVTZ DEFGRID3 RIJCOSX def2/J aug-cc-pVQZ/C verytightscf TightPNO LED
|  2> 
|  3> %pal nprocs 16 end
|  4> %maxcore 4000
|  5> %scf maxiter 999 end
|  6> %basis auxj "autoaux" auxc "autoaux" autoauxlmax true end
|  7> %mdci TCutPNO 1e-7 printlevel 3 end
|  8> 
|  9> * xyz 0 1
| 10> O(1)     3.364853284     1.252522284    -0.119963272
| 11> H(1)     2.731853532     1.891821037    -0.517486897
| 12> H(1)     4.212012919     1.443946099    -0.529713339
| 13> O(2)     2.482542995    -1.248988714     0.449488905
| 14> H(2)     2.616828786    -1.798226083    -0.326968465
| 15> H(2)     2.828107886    -0.362220961     0.204648083
| 16> *
| 17> 
| 18>                          ****END OF INPUT****
================================================================================

                       ****************************
                       * Single Point Calculation *
                       ****************************

---------------------------------
CARTESIAN COORDINATES (ANGSTROEM)
---------------------------------
  O      3.364853    1.252522   -0.119963
  H      2.731854    1.891821   -0.517487
  H      4.212013    1.443946   -0.529713
  O      2.482543   -1.248989    0.449489
  H      2.616829   -1.798226   -0.326968
  H      2.828108   -0.362221    0.204648

----------------------------
CARTESIAN COORDINATES (A.U.)
----------------------------
  NO LB      ZA    FRAG     MASS         X           Y           Z
   0 O     8.0000    1    15.999    6.358651    2.366924   -0.226698
   1 H     1.0000    1     1.008    5.162455    3.575024   -0.977909
   2 H     1.0000    1     1.008    7.959551    2.728663   -1.001013
   3 O     8.0000    2    15.999    4.691326   -2.360247    0.849411
   4 H     1.0000    2     1.008    4.945090   -3.398155   -0.617881
   5 H     1.0000    2     1.008    5.344349   -0.684498    0.386729

----------------------------------------------
CARTESIAN COORDINATES OF FRAGMENTS (ANGSTROEM)
----------------------------------------------

 FRAGMENT 1 
  O     3.364853    1.252522   -0.119963
  H     2.731854    1.891821   -0.517487
  H     4.212013    1.443946   -0.529713

 FRAGMENT 2 
  O     2.482543   -1.248989    0.449489
  H     2.616829   -1.798226   -0.326968
  H     2.828108   -0.362221    0.204648

--------------------------------
INTERNAL COORDINATES (ANGSTROEM)
--------------------------------
 O      0   0   0     0.000000000000     0.00000000     0.00000000
 H      1   0   0     0.983573390273     0.00000000     0.00000000
 H      1   2   0     0.960321634417   105.41002432     0.00000000
 O      1   2   3     2.712988112963   118.34911408   215.99641930
 H      4   1   2     0.960510493747   108.18581688    89.09049228
 H      4   1   2     0.982710114820     2.93658805   107.17403617

---------------------------
INTERNAL COORDINATES (A.U.)
---------------------------
 O      0   0   0     0.000000000000     0.00000000     0.00000000
 H      1   0   0     1.858684340228     0.00000000     0.00000000
 H      1   2   0     1.814744889527   105.41002432     0.00000000
 O      1   2   3     5.126804538084   118.34911408   215.99641930
 H      4   1   2     1.815101781939   108.18581688    89.09049228
 H      4   1   2     1.857052986045     2.93658805   107.17403617

---------------------
BASIS SET INFORMATION
---------------------
There are 2 groups of distinct atoms

 Group   1 Type O   : 19s6p3d2f contracted to 5s4p3d2f pattern {88111/3111/111/11}
 Group   2 Type H   : 6s3p2d contracted to 4s3p2d pattern {3111/111/11}

Atom   0O    basis set group =>   1
Atom   1H    basis set group =>   2
Atom   2H    basis set group =>   2
Atom   3O    basis set group =>   1
Atom   4H    basis set group =>   2
Atom   5H    basis set group =>   2
---------------------------------
AUXILIARY/J BASIS SET INFORMATION
---------------------------------
There are 2 groups of distinct atoms

 Group   1 Type O   : 16s14p13d7f5g3h2i contracted to 16s14p13d7f5g3h2i pattern {1111111111111111/11111111111111/1111111111111/1111111/11111/111/11}
 Group   2 Type H   : 14s6p5d4f3g contracted to 14s6p5d4f3g pattern {11111111111111/111111/11111/1111/111}

Atom   0O    basis set group =>   1
Atom   1H    basis set group =>   2
Atom   2H    basis set group =>   2
Atom   3O    basis set group =>   1
Atom   4H    basis set group =>   2
Atom   5H    basis set group =>   2
---------------------------------
AUXILIARY/C BASIS SET INFORMATION
---------------------------------
There are 2 groups of distinct atoms

 Group   1 Type O   : 16s14p13d7f5g3h2i contracted to 16s14p13d7f5g3h2i pattern {1111111111111111/11111111111111/1111111111111/1111111/11111/111/11}
 Group   2 Type H   : 14s6p5d4f3g contracted to 14s6p5d4f3g pattern {11111111111111/111111/11111/1111/111}

Atom   0O    basis set group =>   1
Atom   1H    basis set group =>   2
Atom   2H    basis set group =>   2
Atom   3O    basis set group =>   1
Atom   4H    basis set group =>   2
Atom   5H    basis set group =>   2

Checking for AutoStart:
The File: frag42.gbw exists
Trying to determine its content:
     ... Fine, the file contains calculation information
     ... Fine, the calculation information was read
     ... Fine, the file contains a basis set
     ... Fine, the basis set was read
     ... Fine, the file contains a geometry
     ... Fine, the geometry was read
     ... Fine, the file contains a set of orbitals
     ... Fine, the orbitals can be read
     => possible old guess file was deleted
     => GBW file was renamed to GES file
     => GES file is set as startup file
     => Guess is set to MORead
     ... now leaving AutoStart



           ************************************************************
           *        Program running with 16 parallel MPI-processes    *
           *              working on a common directory               *
           ************************************************************
------------------------------------------------------------------------------
                           ORCA GTO INTEGRAL CALCULATION
                           -- RI-GTO INTEGRALS CHOSEN --
------------------------------------------------------------------------------
------------------------------------------------------------------------------
                   ___                                                        
                  /   \      - P O W E R E D   B Y -                         
                 /     \                                                     
                 |  |  |   _    _      __       _____    __    __             
                 |  |  |  | |  | |    /  \     |  _  \  |  |  /  |          
                  \  \/   | |  | |   /    \    | | | |  |  | /  /          
                 / \  \   | |__| |  /  /\  \   | |_| |  |  |/  /          
                |  |  |   |  __  | /  /__\  \  |    /   |      \           
                |  |  |   | |  | | |   __   |  |    \   |  |\   \          
                \     /   | |  | | |  |  |  |  | |\  \  |  | \   \       
                 \___/    |_|  |_| |__|  |__|  |_| \__\ |__|  \__/        
                                                                              
                      - O R C A' S   B I G   F R I E N D -                    
                                      &                                       
                       - I N T E G R A L  F E E D E R -                       
                                                                              
 v1 FN, 2020, v2 2021                                                         
------------------------------------------------------------------------------


Reading SHARK input file frag42.SHARKINP.tmp ... ok
Calculating pre-screening integrals         ... done (  0.0 sec) Dimension = 76
Calculating pre-screening integrals (ORCA)  ... done (  0.0 sec) Dimension = 64
Organizing shell pair data                  ... done (  0.0 sec)
Shell pair information
Total number of shell pairs                 ...      2926
Shell pairs after pre-screening             ...      2767
Total number of primitive shell pairs       ...      3934
Primitive shell pairs kept                  ...      3550
          la=0 lb=0:    657 shell pairs
          la=1 lb=0:    725 shell pairs
          la=1 lb=1:    210 shell pairs
          la=2 lb=0:    500 shell pairs
          la=2 lb=1:    280 shell pairs
          la=2 lb=2:    105 shell pairs
          la=3 lb=0:    144 shell pairs
          la=3 lb=1:     80 shell pairs
          la=3 lb=2:     56 shell pairs
          la=3 lb=3:     10 shell pairs

Calculating one electron integrals          ... done (  0.0 sec)
Calculating RI/J V-Matrix + Cholesky decomp.... done (  0.2 sec)
Calculating RI/C V-Matrix + Cholesky decomp.... done (  0.2 sec)
Calculating Nuclear repulsion               ... done (  0.0 sec) ENN=     37.667858721732 Eh

SHARK setup successfully completed in   0.5 seconds

Maximum memory used throughout the entire GTOINT-calculation: 37.7 MB


           ************************************************************
           *        Program running with 16 parallel MPI-processes    *
           *              working on a common directory               *
           ************************************************************
-------------------------------------------------------------------------------
                                 ORCA SCF
-------------------------------------------------------------------------------

------------
SCF SETTINGS
------------
Hamiltonian:
 Ab initio Hamiltonian  Method          .... Hartree-Fock(GTOs)
 RI-approximation to the Coulomb term is turned on
   Number of AuxJ basis functions       .... 1000
   RIJ-COSX (HFX calculated with COS-X)).... on


General Settings:
 Integral files         IntName         .... frag42
 Hartree-Fock type      HFTyp           .... RHF
 Total Charge           Charge          ....    0
 Multiplicity           Mult            ....    1
 Number of Electrons    NEL             ....   20
 Basis Dimension        Dim             ....  184
 Nuclear Repulsion      ENuc            ....     37.6678587217 Eh

Convergence Acceleration:
 DIIS                   CNVDIIS         .... on
   Start iteration      DIISMaxIt       ....    12
   Startup error        DIISStart       ....  0.200000
   # of expansion vecs  DIISMaxEq       ....     5
   Bias factor          DIISBfac        ....   1.050
   Max. coefficient     DIISMaxC        ....  10.000
 Trust-Rad. Augm. Hess. CNVTRAH         .... auto
   Auto Start mean grad. ratio tolernc. ....  1.125000
   Auto Start start iteration           ....     1
   Auto Start num. interpolation iter.  ....    10
   Max. Number of Micro iterations      ....    24
   Max. Number of Macro iterations      .... Maxiter - #DIIS iter
   Max. Number of back steps            ....     5
   Number of Davidson start vectors     ....     2
   Converg. threshold I  (grad. norm)   ....   2.000e-06
   Converg. threshold II (energy diff.) ....   1.000e-09
   Grad. Scal. Fac. for Micro threshold ....   0.100
   Minimum threshold for Micro iter.    ....   1.000e-02
   NR start threshold (gradient norm)   ....   1.000e-04
   Initial trust radius                 ....   0.400
   Minimum AH scaling param. (alpha)    ....   1.000
   Maximum AH scaling param. (alpha)    .... 1000.000
   Inactive MOs                         .... canonicalized
   Orbital update algorithm             .... Taylor
   White noise on init. David. guess    .... on
   Maximum white noise                  ....   0.010
   Quad. conv. algorithm                .... NR
   Preconditioner                       .... approx. diagonal
 SOSCF                  CNVSOSCF        .... on
   Start iteration      SOSCFMaxIt      ....   150
   Startup grad/error   SOSCFStart      ....  0.003300
 Level Shifting         CNVShift        .... on
   Level shift para.    LevelShift      ....    0.2500
   Turn off err/grad.   ShiftErr        ....    0.0010
 Zerner damping         CNVZerner       .... off
 Static damping         CNVDamp         .... on
   Fraction old density DampFac         ....    0.7000
   Max. Damping (<1)    DampMax         ....    0.9800
   Min. Damping (>=0)   DampMin         ....    0.0000
   Turn off err/grad.   DampErr         ....    0.1000

SCF Procedure:
 Maximum # iterations   MaxIter         ....   999
 SCF integral mode      SCFMode         .... Direct
   Integral package                     .... SHARK and LIBINT hybrid scheme
 Reset frequency        DirectResetFreq ....    20
 Integral Threshold     Thresh          ....  1.000e-12 Eh
 Primitive CutOff       TCut            ....  1.000e-14 Eh

Convergence Tolerance:
 Convergence Check Mode ConvCheckMode   .... Total+1el-Energy
 Convergence forced     ConvForced      .... 1
 Energy Change          TolE            ....  1.000e-09 Eh
 1-El. energy change                    ....  1.000e-06 Eh
 Orbital Gradient       TolG            ....  2.000e-06
 Orbital Rotation angle TolX            ....  2.000e-06
 DIIS Error             TolErr          ....  1.000e-08


Diagonalization of the overlap matrix:
Smallest eigenvalue                        ... 2.351e-04
Time for diagonalization                   ...    0.005 sec
Threshold for overlap eigenvalues          ... 1.000e-08
Number of eigenvalues below threshold      ... 0
Time for construction of square roots      ...    0.005 sec
Total time needed                          ...    0.010 sec

---------------------
INITIAL GUESS: MOREAD
---------------------
Guess MOs are being read from file: frag42.ges
Input Geometry matches current geometry (good)
Input basis set matches current basis set (good)
MOs were renormalized
MOs were reorthogonalized (Cholesky)
                      ------------------
                      INITIAL GUESS DONE (   0.0 sec)
                      ------------------
--------------------
COSX GRID GENERATION
--------------------

GRIDX 1
-------
General Integration Accuracy     IntAcc      ... 4.020
Radial Grid Type                 RadialGrid  ... OptM3 with GC (2021)
Angular Grid (max. ang.)         AngularGrid ... 2 (Lebedev-110)
Angular grid pruning method      GridPruning ... 4 (adaptive)
Weight generation scheme         WeightScheme... Becke
Basis function cutoff            BFCut       ... 1.0000e-12
Integration weight cutoff        WCut        ... 1.0000e-14
Angular grids for H and He will be reduced by one unit
Partially contracted basis set               ... on
Rotationally invariant grid construction     ... off

Total number of grid points                  ...     8202
Total number of batches                      ...      132
Average number of points per batch           ...       62
Average number of grid points per atom       ...     1367
UseSFitting                                  ... on

GRIDX 2
-------
General Integration Accuracy     IntAcc      ... 4.338
Radial Grid Type                 RadialGrid  ... OptM3 with GC (2021)
Angular Grid (max. ang.)         AngularGrid ... 3 (Lebedev-194)
Angular grid pruning method      GridPruning ... 4 (adaptive)
Weight generation scheme         WeightScheme... Becke
Basis function cutoff            BFCut       ... 1.0000e-12
Integration weight cutoff        WCut        ... 1.0000e-14
Angular grids for H and He will be reduced by one unit
Partially contracted basis set               ... on
Rotationally invariant grid construction     ... off

Total number of grid points                  ...    18697
Total number of batches                      ...      294
Average number of points per batch           ...       63
Average number of grid points per atom       ...     3116
UseSFitting                                  ... on

GRIDX 3
-------
General Integration Accuracy     IntAcc      ... 4.871
Radial Grid Type                 RadialGrid  ... OptM3 with GC (2021)
Angular Grid (max. ang.)         AngularGrid ... 4 (Lebedev-302)
Angular grid pruning method      GridPruning ... 4 (adaptive)
Weight generation scheme         WeightScheme... Becke
Basis function cutoff            BFCut       ... 1.0000e-12
Integration weight cutoff        WCut        ... 1.0000e-14
Angular grids for H and He will be reduced by one unit
Partially contracted basis set               ... on
Rotationally invariant grid construction     ... off

Total number of grid points                  ...    36501
Total number of batches                      ...      573
Average number of points per batch           ...       63
Average number of grid points per atom       ...     6084
UseSFitting                                  ... on

Time for X-Grid setup             =    0.263 sec

 re-compute Schwartz prescreening matrix in partially contracted basis (1) ...done (   0.045 sec)
--------------
SCF ITERATIONS
--------------
ITER       Energy         Delta-E        Max-DP      RMS-DP      [F,P]     Damp
               ***  Starting incremental Fock matrix formation  ***
                      *** Initiating the SOSCF procedure ***
                      *** Re-Reading the Fockian *** 
                      *** Removing any level shift *** 
ITER       Energy         Delta-E        Max-DP      RMS-DP   
  0   -152.1211357256   0.000000000000 0.00500258  0.00008982
               *** Restarting incremental Fock matrix formation ***
  1   -152.1210425097   0.000093215827 0.00490691  0.00008652
  2   -152.1210426506  -0.000000140829 0.00019684  0.00000437
  3   -152.1210423755   0.000000275059 0.00002287  0.00000047
  4   -152.1210423640   0.000000011449 0.00000591  0.00000010
  5   -152.1210423688  -0.000000004738 0.00000247  0.00000005
  6   -152.1210423701  -0.000000001314 0.00000031  0.00000001
  7   -152.1210423698   0.000000000282 0.00000013  0.00000000
                 **** Energy Check signals convergence ****
              ***Rediagonalizing the Fockian in SOSCF/NRSCF***

               *****************************************************
               *                     SUCCESS                       *
               *           SCF CONVERGED AFTER   8 CYCLES          *
               *****************************************************

Old exchange energy                            =    -17.880044455 Eh
New exchange energy                            =    -17.880125130 Eh
Exchange energy change after final integration =     -0.000080675 Eh
Total energy after final integration           =   -152.121123045 Eh
Final COS-X integration done in                =     0.461 sec

----------------
TOTAL SCF ENERGY
----------------

Total Energy       :         -152.12112305 Eh           -4139.42620 eV

Components:
Nuclear Repulsion  :           37.66785872 Eh            1024.99455 eV
Electronic Energy  :         -189.78898177 Eh           -5164.42075 eV
One Electron Energy:         -284.74918371 Eh           -7748.41921 eV
Two Electron Energy:           94.96020194 Eh            2583.99846 eV
Max COSX asymmetry :            0.00000036 Eh               0.00001 eV

Virial components:
Potential Energy   :         -303.98679087 Eh           -8271.90111 eV
Kinetic Energy     :          151.86566782 Eh            4132.47491 eV
Virial Ratio       :            2.00168211


---------------
SCF CONVERGENCE
---------------

  Last Energy change         ...   -1.1113e-11  Tolerance :   1.0000e-09
  Last MAX-Density change    ...    8.8818e-16  Tolerance :   1.0000e-08
  Last RMS-Density change    ...    1.1396e-17  Tolerance :   1.0000e-09

             **** THE GBW FILE WAS UPDATED (frag42.gbw) ****
             **** DENSITY frag42.scfp WAS UPDATED ****
             **** ENERGY FILE WAS UPDATED (frag42.en.tmp) ****
             **** THE GBW FILE WAS UPDATED (frag42.gbw) ****
             **** DENSITY frag42.scfp WAS UPDATED ****
             **** ENERGY FILE WAS UPDATED (frag42.en.tmp) ****
----------------
ORBITAL ENERGIES
----------------

  NO   OCC          E(Eh)            E(eV) 
   0   2.0000     -20.600975      -560.5810 
   1   2.0000     -20.524096      -558.4890 
   2   2.0000      -1.382818       -37.6284 
   3   2.0000      -1.306032       -35.5389 
   4   2.0000      -0.745143       -20.2764 
   5   2.0000      -0.695503       -18.9256 
   6   2.0000      -0.609989       -16.5987 
   7   2.0000      -0.557643       -15.1742 
   8   2.0000      -0.523222       -14.2376 
   9   2.0000      -0.468887       -12.7591 
  10   0.0000       0.018356         0.4995 
  11   0.0000       0.042522         1.1571 
  12   0.0000       0.048396         1.3169 
  13   0.0000       0.073975         2.0129 
  14   0.0000       0.125501         3.4150 
  15   0.0000       0.141814         3.8590 
  16   0.0000       0.162984         4.4350 
  17   0.0000       0.171139         4.6569 
  18   0.0000       0.176130         4.7927 
  19   0.0000       0.189926         5.1681 
  20   0.0000       0.209842         5.7101 
  21   0.0000       0.225635         6.1398 
  22   0.0000       0.240599         6.5470 
  23   0.0000       0.257664         7.0114 
  24   0.0000       0.259529         7.0621 
  25   0.0000       0.280430         7.6309 
  26   0.0000       0.305546         8.3143 
  27   0.0000       0.307901         8.3784 
  28   0.0000       0.364495         9.9184 
  29   0.0000       0.371261        10.1025 
  30   0.0000       0.380341        10.3496 
  31   0.0000       0.406777        11.0690 
  32   0.0000       0.422936        11.5087 
  33   0.0000       0.435807        11.8589 
  34   0.0000       0.446847        12.1593 
  35   0.0000       0.462180        12.5766 
  36   0.0000       0.498891        13.5755 
  37   0.0000       0.587068        15.9749 
  38   0.0000       0.597286        16.2530 
  39   0.0000       0.605206        16.4685 
  40   0.0000       0.680822        18.5261 
  41   0.0000       0.698154        18.9977 
  42   0.0000       0.721762        19.6402 
  43   0.0000       0.736356        20.0373 
  44   0.0000       0.749307        20.3897 
  45   0.0000       0.768630        20.9155 
  46   0.0000       0.775501        21.1025 
  47   0.0000       0.801520        21.8105 
  48   0.0000       0.828109        22.5340 
  49   0.0000       0.857803        23.3420 
  50   0.0000       0.895748        24.3745 
  51   0.0000       0.908131        24.7115 
  52   0.0000       0.917781        24.9741 
  53   0.0000       0.948270        25.8037 
  54   0.0000       0.953084        25.9347 
  55   0.0000       0.958869        26.0922 
  56   0.0000       0.973712        26.4961 
  57   0.0000       0.977462        26.5981 
  58   0.0000       0.997674        27.1481 
  59   0.0000       1.002068        27.2677 
  60   0.0000       1.020629        27.7727 
  61   0.0000       1.032038        28.0832 
  62   0.0000       1.047185        28.4953 
  63   0.0000       1.061908        28.8960 
  64   0.0000       1.066360        29.0171 
  65   0.0000       1.143230        31.1089 
  66   0.0000       1.151991        31.3473 
  67   0.0000       1.177803        32.0496 
  68   0.0000       1.204273        32.7699 
  69   0.0000       1.228711        33.4349 
  70   0.0000       1.251910        34.0662 
  71   0.0000       1.283249        34.9190 
  72   0.0000       1.288432        35.0600 
  73   0.0000       1.354805        36.8661 
  74   0.0000       1.456683        39.6384 
  75   0.0000       1.486037        40.4371 
  76   0.0000       1.504549        40.9409 
  77   0.0000       1.571019        42.7496 
  78   0.0000       1.579931        42.9921 
  79   0.0000       1.602745        43.6129 
  80   0.0000       1.653177        44.9852 
  81   0.0000       1.670000        45.4430 
  82   0.0000       1.713271        46.6205 
  83   0.0000       1.742126        47.4057 
  84   0.0000       1.850839        50.3639 
  85   0.0000       1.857850        50.5547 
  86   0.0000       1.943489        52.8850 
  87   0.0000       1.986057        54.0433 
  88   0.0000       2.015730        54.8508 
  89   0.0000       2.100206        57.1495 
  90   0.0000       2.123211        57.7755 
  91   0.0000       2.274793        61.9003 
  92   0.0000       2.303362        62.6777 
  93   0.0000       2.351564        63.9893 
  94   0.0000       2.367189        64.4145 
  95   0.0000       2.419352        65.8339 
  96   0.0000       2.438634        66.3586 
  97   0.0000       2.471184        67.2443 
  98   0.0000       2.480645        67.5018 
  99   0.0000       2.512573        68.3706 
 100   0.0000       2.525337        68.7179 
 101   0.0000       2.570361        69.9431 
 102   0.0000       2.590488        70.4908 
 103   0.0000       2.657119        72.3039 
 104   0.0000       2.681908        72.9784 
 105   0.0000       2.715606        73.8954 
 106   0.0000       2.735122        74.4264 
 107   0.0000       2.755494        74.9808 
 108   0.0000       2.795890        76.0800 
 109   0.0000       2.842877        77.3586 
 110   0.0000       2.872685        78.1697 
 111   0.0000       2.925294        79.6013 
 112   0.0000       2.963814        80.6495 
 113   0.0000       3.026348        82.3511 
 114   0.0000       3.109781        84.6214 
 115   0.0000       3.169019        86.2334 
 116   0.0000       3.736260       101.6688 
 117   0.0000       3.755171       102.1834 
 118   0.0000       3.841137       104.5227 
 119   0.0000       4.033606       109.7600 
 120   0.0000       4.077348       110.9503 
 121   0.0000       4.133578       112.4804 
 122   0.0000       4.185886       113.9037 
 123   0.0000       4.190327       114.0246 
 124   0.0000       4.231897       115.1558 
 125   0.0000       4.271125       116.2232 
 126   0.0000       4.300875       117.0328 
 127   0.0000       4.333993       117.9339 
 128   0.0000       4.352762       118.4447 
 129   0.0000       4.404252       119.8458 
 130   0.0000       4.436488       120.7230 
 131   0.0000       4.482279       121.9690 
 132   0.0000       4.487619       122.1143 
 133   0.0000       4.505525       122.6016 
 134   0.0000       4.542526       123.6084 
 135   0.0000       4.586534       124.8059 
 136   0.0000       4.638924       126.2315 
 137   0.0000       4.672151       127.1357 
 138   0.0000       4.784930       130.2046 
 139   0.0000       4.835972       131.5935 
 140   0.0000       4.874252       132.6351 
 141   0.0000       5.025496       136.7507 
 142   0.0000       5.088495       138.4650 
 143   0.0000       5.102327       138.8414 
 144   0.0000       5.204793       141.6296 
 145   0.0000       5.255492       143.0092 
 146   0.0000       5.297759       144.1593 
 147   0.0000       5.359490       145.8391 
 148   0.0000       5.374611       146.2506 
 149   0.0000       5.495560       149.5418 
 150   0.0000       5.598567       152.3447 
 151   0.0000       5.659071       153.9911 
 152   0.0000       5.748196       156.4164 
 153   0.0000       5.868903       159.7010 
 154   0.0000       6.236578       169.7059 
 155   0.0000       6.290576       171.1753 
 156   0.0000       6.532686       177.7634 
 157   0.0000       6.577248       178.9760 
 158   0.0000       6.795321       184.9101 
 159   0.0000       6.837945       186.0699 
 160   0.0000       6.915195       188.1720 
 161   0.0000       7.013461       190.8460 
 162   0.0000       7.143584       194.3868 
 163   0.0000       7.200572       195.9375 
 164   0.0000       7.263999       197.6635 
 165   0.0000       7.298648       198.6063 
 166   0.0000       7.309763       198.9088 
 167   0.0000       7.312908       198.9943 
 168   0.0000       7.350286       200.0115 
 169   0.0000       7.382216       200.8803 
 170   0.0000       7.409173       201.6138 
 171   0.0000       7.463380       203.0889 
 172   0.0000       7.559973       205.7173 
 173   0.0000       7.586721       206.4452 
 174   0.0000       7.661513       208.4804 
 175   0.0000       7.755796       211.0459 
 176   0.0000       7.872893       214.2323 
 177   0.0000       7.938327       216.0129 
 178   0.0000       8.039072       218.7543 
 179   0.0000       8.140123       221.5040 
 180   0.0000       8.766484       238.5481 
 181   0.0000       8.950141       243.5457 
 182   0.0000      15.867339       431.7722 
 183   0.0000      16.752331       455.8541 

--------------------
FRAGMENT INFORMATION
--------------------
Fragment  1:    0   1   2 
Fragment  2:    3   4   5 


                    ********************************
                    * MULLIKEN POPULATION ANALYSIS *
                    ********************************

-------------------------
MULLIKEN FRAGMENT CHARGES
-------------------------
 Fragment   0 :   0.035724
 Fragment   1 :  -0.035724
Sum of fragment charges:    0.0000000

---------------------------------
MULLIKEN FRAGMENT OVERLAP CHARGES
---------------------------------
                  0          1    
      0      11.148956  -0.124852
      1      -0.124852  11.218655

-----------------------
MULLIKEN ATOMIC CHARGES
-----------------------
   0 O :   -0.422838
   1 H :    0.243512
   2 H :    0.215050
   3 O :   -0.517572
   4 H :    0.193555
   5 H :    0.288294
Sum of atomic charges:    0.0000000

--------------------------------
MULLIKEN REDUCED ORBITAL CHARGES
--------------------------------
  0 O s       :     3.864047  s :     3.864047
      pz      :     1.682753  p :     4.547459
      px      :     1.244430
      py      :     1.620276
      dz2     :     0.000783  d :     0.010500
      dxz     :     0.004632
      dyz     :     0.003445
      dx2y2   :    -0.001671
      dxy     :     0.003311
      f0      :     0.000271  f :     0.000833
      f+1     :     0.000045
      f-1     :     0.000021
      f+2     :     0.000078
      f-2     :     0.000461
      f+3     :    -0.000044
      f-3     :     0.000001
  1 H s       :     0.642815  s :     0.642815
      pz      :     0.031784  p :     0.094438
      px      :     0.023270
      py      :     0.039384
      dz2     :     0.003210  d :     0.019235
      dxz     :     0.004369
      dyz     :     0.001366
      dx2y2   :     0.008549
      dxy     :     0.001741
  2 H s       :     0.662815  s :     0.662815
      pz      :     0.033088  p :     0.100902
      px      :     0.024939
      py      :     0.042875
      dz2     :     0.003782  d :     0.021233
      dxz     :     0.005311
      dyz     :     0.000801
      dx2y2   :     0.002086
      dxy     :     0.009253
  3 O s       :     3.889220  s :     3.889220
      pz      :     1.476558  p :     4.602881
      px      :     1.786461
      py      :     1.339863
      dz2     :     0.006111  d :     0.024329
      dxz     :     0.002350
      dyz     :     0.009081
      dx2y2   :     0.002639
      dxy     :     0.004147
      f0      :     0.000049  f :     0.001143
      f+1     :     0.000106
      f-1     :     0.000226
      f+2     :     0.000089
      f-2     :     0.000187
      f+3     :     0.000295
      f-3     :     0.000190
  4 H s       :     0.684893  s :     0.684893
      pz      :     0.026242  p :     0.104108
      px      :     0.048644
      py      :     0.029222
      dz2     :     0.005885  d :     0.017444
      dxz     :     0.005444
      dyz     :     0.000634
      dx2y2   :     0.001860
      dxy     :     0.003622
  5 H s       :     0.592036  s :     0.592036
      pz      :     0.026765  p :     0.069160
      px      :     0.045088
      py      :    -0.002694
      dz2     :     0.001859  d :     0.050510
      dxz     :     0.001922
      dyz     :     0.014464
      dx2y2   :     0.013886
      dxy     :     0.018380


                     *******************************
                     * LOEWDIN POPULATION ANALYSIS *
                     *******************************

------------------------
LOEWDIN FRAGMENT CHARGES
------------------------
 Fragment   0 :   0.234777
 Fragment   1 :  -0.234777

----------------------------
LOEWDIN FRAGMENT BOND ORDERS
----------------------------
                  0          1    
      0      17.334900   0.729794
      1       0.729794  18.335294

----------------------
LOEWDIN ATOMIC CHARGES
----------------------
   0 O :    1.097387
   1 H :   -0.406351
   2 H :   -0.456259
   3 O :    1.023719
   4 H :   -0.520121
   5 H :   -0.738375

-------------------------------
LOEWDIN REDUCED ORBITAL CHARGES
-------------------------------
  0 O s       :     2.957867  s :     2.957867
      pz      :     1.360573  p :     3.819919
      px      :     1.154694
      py      :     1.304652
      dz2     :     0.010452  d :     0.105478
      dxz     :     0.023993
      dyz     :     0.011304
      dx2y2   :     0.026859
      dxy     :     0.032870
      f0      :     0.002227  f :     0.019349
      f+1     :     0.000142
      f-1     :     0.000969
      f+2     :     0.003692
      f-2     :     0.004963
      f+3     :     0.004272
      f-3     :     0.003085
  1 H s       :     0.565750  s :     0.565750
      pz      :     0.162002  p :     0.495445
      px      :     0.158582
      py      :     0.174861
      dz2     :     0.055935  d :     0.345156
      dxz     :     0.058638
      dyz     :     0.057932
      dx2y2   :     0.101064
      dxy     :     0.071588
  2 H s       :     0.577270  s :     0.577270
      pz      :     0.174730  p :     0.524492
      px      :     0.204978
      py      :     0.144784
      dz2     :     0.060949  d :     0.354498
      dxz     :     0.099218
      dyz     :     0.020310
      dx2y2   :     0.076516
      dxy     :     0.097505
  3 O s       :     3.007573  s :     3.007573
      pz      :     1.298414  p :     3.883471
      px      :     1.394424
      py      :     1.190633
      dz2     :     0.014031  d :     0.071681
      dxz     :     0.001151
      dyz     :     0.031253
      dx2y2   :     0.014719
      dxy     :     0.010527
      f0      :     0.001385  f :     0.013556
      f+1     :     0.000530
      f-1     :     0.005163
      f+2     :     0.001890
      f-2     :     0.001623
      f+3     :     0.002403
      f-3     :     0.000563
  4 H s       :     0.597206  s :     0.597206
      pz      :     0.231030  p :     0.560085
      px      :     0.169126
      py      :     0.159929
      dz2     :     0.115173  d :     0.362829
      dxz     :     0.079075
      dyz     :     0.083557
      dx2y2   :     0.043886
      dxy     :     0.041138
  5 H s       :     0.552712  s :     0.552712
      pz      :     0.155663  p :     0.646933
      px      :     0.179650
      py      :     0.311620
      dz2     :     0.055304  d :     0.538730
      dxz     :     0.026421
      dyz     :     0.156077
      dx2y2   :     0.154114
      dxy     :     0.146815


                      *****************************
                      * MAYER POPULATION ANALYSIS *
                      *****************************

  NA   - Mulliken gross atomic population
  ZA   - Total nuclear charge
  QA   - Mulliken gross atomic charge
  VA   - Mayer's total valence
  BVA  - Mayer's bonded valence
  FA   - Mayer's free valence

  ATOM       NA         ZA         QA         VA         BVA        FA
  0 O      8.4228     8.0000    -0.4228     1.9954     1.9954    -0.0000
  1 H      0.7565     1.0000     0.2435     1.0176     1.0176    -0.0000
  2 H      0.7850     1.0000     0.2150     1.0384     1.0384    -0.0000
  3 O      8.5176     8.0000    -0.5176     1.9199     1.9199    -0.0000
  4 H      0.8064     1.0000     0.1936     1.0671     1.0671    -0.0000
  5 H      0.7117     1.0000     0.2883     0.9921     0.9921    -0.0000

  Mayer bond orders larger than 0.100000
B(  0-O ,  1-H ) :   0.9879 B(  0-O ,  2-H ) :   1.0114 B(  3-O ,  4-H ) :   1.0278 
B(  3-O ,  5-H ) :   0.9313 

-------
TIMINGS
-------

Total SCF time: 0 days 0 hours 0 min 3 sec 

Total time                  ....       3.302 sec
Sum of individual times     ....       5.241 sec  (158.7%)

Fock matrix formation       ....       4.876 sec  (147.7%)
  Split-RI-J                ....       0.530 sec  ( 10.9% of F)
  Chain of spheres X        ....       2.205 sec  ( 45.2% of F)
Diagonalization             ....       0.010 sec  (  0.3%)
Density matrix formation    ....       0.004 sec  (  0.1%)
Population analysis         ....       0.009 sec  (  0.3%)
Initial guess               ....       0.008 sec  (  0.2%)
Orbital Transformation      ....       0.000 sec  (  0.0%)
Orbital Orthonormalization  ....       0.003 sec  (  0.1%)
DIIS solution               ....       0.006 sec  (  0.2%)
SOSCF solution              ....       0.065 sec  (  2.0%)

Maximum memory used throughout the entire SCF-calculation: 73.6 MB


           ************************************************************
           *        Program running with 16 parallel MPI-processes    *
           *              working on a common directory               *
           ************************************************************


--------------------------------------------------------------------------------
                             ORCA-MATRIX DRIVEN CI
--------------------------------------------------------------------------------


Wavefunction type
-----------------
Correlation treatment                      ...      CCSD     
Single excitations                         ... ON
Orbital optimization                       ... OFF
Calculation of Z vector                    ... OFF
Calculation of Brueckner orbitals          ... OFF
Perturbative triple excitations            ... ON
Calculation of F12 correction              ... OFF
Frozen core treatment                      ... chemical core (4 el)
Reference Wavefunction                     ... RHF
  Internal Orbitals:     2 ...    9 (  8 MO's/ 16 electrons)
  Virtual  Orbitals:    10 ...  183 (174 MO's              )
Number of AO's                             ...    184
Number of electrons                        ...     20
Number of correlated electrons             ...     16

Algorithmic settings
--------------------
Integral transformation                    ... All integrals via the RI transformation
K(C) Formation                             ... RI-DLPNO
   PNO-Integral Storage                    ... ON DISK
   PNO occupation number cut-off           ... 1.000e-07
   Singles PNO occupation number cut-off   ... 3.000e-09
   PNO Mulliken prescreening cut-off       ... 1.000e-03
   Domain cut-off (Mulliken population)    ... 1.000e-03
   PNO Normalization                       ...    1
Maximum number of iterations               ...        50
Convergence tolerance (max. residuum)      ... 1.000e-06
Level shift for amplitude update           ... 2.000e-01
Maximum number of DIIS vectors             ...         7
DIIS turned on at iteration                ...         0
Damping before turning on DIIS             ...     0.500
Damping after turning on DIIS              ...     0.000
Pair specific amplitude update             ... OFF
Natural orbital iterations                 ... OFF
Perturbative natural orbital generation    ... OFF
Printlevel                                 ... 3

Singles Fock matrix elements calculated using PNOs.

Memory handling:
----------------
Maximum memory for working arrays          ...   4000 MB
Data storage in matrix containers          ... UNCOMPRESSED
Data type for integral storage             ... DOUBLE
In-Core Storage of quantities:
   Amplitudes+Sigma Vector      ... NO
   J+K operators                ... NO
   DIIS vectors                 ... NO
   3-external integrals         ... NO
   4-external integrals         ... NO

Localization treatment:
-----------------------
Localization option                        ...    6
Localization threshhold                    ... -1.0e+00
Using relative localization threshhold     ... 1.0e-08
Neglect threshold for strong pairs         ... 1.000e-05 Eh
Prescreening threshold for very weak pairs ... 1.000e-07 Eh

Initializing the integral package          ... done
Localizing the valence orbitals
Localizing the valence orbitals
------------------------------------------------------------------------------
                           ORCA ORBITAL LOCALIZATION
------------------------------------------------------------------------------

Input orbitals are from                  ... frag42.gbw
Output orbitals are to                   ... frag42.loc
Max. number of iterations                ... 128
Localizations seeded randomly            ... off
Convergence tolerance                    ... 2.000e-07
Using relative localization threshhold   ... 1.000e-08
Threshold for strong local MOs           ... 9.500e-01
Threshold for bond MOs                   ... 8.500e-01
Operator                                 ... 0
Orbital range for localization           ... 2 to 9
Localization criterion                   ... FOSTER-BOYS (AUGMENTED HESSIAN)
Doing the dipole integrals     ... o.k.
Initial value of the localization sum :   302.622119
ITERATION   0 : L=  306.3959179572 DL=  3.77e+00 (AVERGE_DL)=    0.3671219651 
ITERATION   1 : L=  306.9638879560 DL=  5.68e-01 (AVERGE_DL)=    0.1424241651 
ITERATION   2 : L=  307.2512823990 DL=  2.87e-01 (AVERGE_DL)=    0.1013118317 
ITERATION   3 : L=  307.2590586352 DL=  7.78e-03 (AVERGE_DL)=    0.0166650149 
ITERATION   4 : L=  307.2597213478 DL=  6.63e-04 (AVERGE_DL)=    0.0048650084 
ITERATION   5 : L=  307.2598098179 DL=  8.85e-05 (AVERGE_DL)=    0.0017775392 
ITERATION   6 : L=  307.2598210322 DL=  1.12e-05 (AVERGE_DL)=    0.0006328600 
ITERATION   7 : L=  307.2598224102 DL=  1.38e-06 (AVERGE_DL)=    0.0002218435 
ITERATION   8 : L=  307.2598225738 DL=  1.64e-07 (AVERGE_DL)=    0.0000764466 
LOCALIZATION SUM CONVERGED

------------------------------------------------------
AUGMENTED HESSIAN OPTIMIZATION OF FOSTER-BOYS ORBITALS
------------------------------------------------------

Spin operator:           0
Orbital window:          2 to 9
Number of iterations:    128
Gradient tolerance:      2.000e-07
Number of pairs:         28
Davidson threshold:      2000
Diagonalization method:  LAPACK
Iter:    0   L: 307.2598225738   Grad. norm: 4.565375e-04
   *** Likely close to a maximum now. ***
       Augmented Hessian eigenvalues:  4.43e-08 -1.17e+00 -1.29e+00 -2.99e+00 ... 
Iter:    1   L: 307.2598225960   Grad. norm: 2.223373e-08
LOCALIZATION HAS CONVERGED.

Eigenvalues of the Hessian:
  0 -1.174e+00
  1 -1.293e+00
  2 -2.986e+00
  3 -3.214e+00
  4 -4.391e+00
  5 -4.753e+00
  6 -5.197e+00
  7 -5.339e+00
  8 -7.010e+00
  9 -7.295e+00
    ...


--------------------------------------------------------------------------------
                    LOCALIZED MOLECULAR ORBITAL COMPOSITIONS
--------------------------------------------------------------------------------

The Mulliken populations for each LMO on each atom are computed
The LMO`s will be ordered according to atom index and type
  (A) Strongly localized MO`s have populations of >=0.950 on one atom
  (B) Two center bond orbitals have populations of >=0.850 on two atoms
  (C) Other MO`s are considered to be `delocalized`

FOUND  -   4 strongly local MO`s
       -   4 two center bond MO`s
       -   0 significantly delocalized MO`s

Rather strongly localized orbitals:
MO   5:   3O  -   1.001166
MO   4:   3O  -   0.998335
MO   3:   0O  -   0.978694
MO   2:   0O  -   1.018051
Bond-like localized orbitals:
MO   9:   5H  -   0.346793  and   3O  -   0.663303
MO   8:   4H  -   0.393274  and   3O  -   0.601054
MO   7:   2H  -   0.389322  and   0O  -   0.607192
MO   6:   1H  -   0.373946  and   0O  -   0.621988
Localized MO's were stored in: frag42.loc

Localizing the core orbitals
------------------------------------------------------------------------------
                           ORCA ORBITAL LOCALIZATION
------------------------------------------------------------------------------

Input orbitals are from                  ... frag42.loc
Output orbitals are to                   ... frag42.loc
Max. number of iterations                ... 128
Localizations seeded randomly            ... off
Convergence tolerance                    ... 2.000e-07
Using relative localization threshhold   ... 1.000e-08
Threshold for strong local MOs           ... 9.500e-01
Threshold for bond MOs                   ... 8.500e-01
Operator                                 ... 0
Orbital range for localization           ... 0 to 1
Localization criterion                   ... FOSTER-BOYS (AUGMENTED HESSIAN)
Doing the dipole integrals     ... o.k.
Initial value of the localization sum :    74.389129
ITERATION   0 : L=   74.3891299235 DL=  6.72e-07 (AVERGE_DL)=    0.0008196776 
LOCALIZATION SUM CONVERGED

------------------------------------------------------
AUGMENTED HESSIAN OPTIMIZATION OF FOSTER-BOYS ORBITALS
------------------------------------------------------

Spin operator:           0
Orbital window:          0 to 1
Number of iterations:    128
Gradient tolerance:      2.000e-07
Number of pairs:         1
Davidson threshold:      2000
Diagonalization method:  LAPACK
Iter:    0   L: 74.3891299235   Grad. norm: 8.182656e-18
   *** Likely close to a maximum now. ***
       Augmented Hessian eigenvalues:  6.37e-37 -1.05e+02
Iter:    1   L: 74.3891299235   Grad. norm: 1.058791e-22
LOCALIZATION HAS CONVERGED.

Eigenvalues of the Hessian:
  0 -1.051e+02


--------------------------------------------------------------------------------
                    LOCALIZED MOLECULAR ORBITAL COMPOSITIONS
--------------------------------------------------------------------------------

The Mulliken populations for each LMO on each atom are computed
The LMO`s will be ordered according to atom index and type
  (A) Strongly localized MO`s have populations of >=0.950 on one atom
  (B) Two center bond orbitals have populations of >=0.850 on two atoms
  (C) Other MO`s are considered to be `delocalized`

FOUND  -   2 strongly local MO`s
       -   0 two center bond MO`s
       -   0 significantly delocalized MO`s

Rather strongly localized orbitals:
MO   1:   3O  -   0.999197
MO   0:   0O  -   0.998658
Localized MO's were stored in: frag42.loc

Warning: reference  - re-canonicalizations have been set to INT 1 VIRT 1
Warning: internal orbitals are localized - no re-canonicalization of internal orbitals
Warning: UsePNO is turned on - no re-canonicalization of internal and virtual orbitals

--------------------------
CLOSED-SHELL FOCK OPERATOR
--------------------------

Restoring SHARK [2] ... ok
Entering RIJCOSX section for the Fock matrix
Trying to retrieve the full J-matrix              ... done
Updating the Fock matrix                          ... done
Making the frozen core Coulomb matrix             ... SHARKdone
Retrieving the full K-matrix                      ... done
Calculating the frozen core K-matrix              ... done
Updating the Fock matrix                          ... done
Time needed for Fock operator              ...            0.567 sec
Reference energy                           ...   -152.121123079

--------------
DLPNO SETTINGS (2015 fully linear scaling implementation)
--------------

TCutMKN:           1.000e-03
TCutPAO:           1.000e-03
TCutPNO:           1.000e-07
TCutPNOSingles:    3.000e-09
TCutEN:            9.700e-01
TCutPAOExt:        1.000e-01
TCutPairs:         1.000e-05
TCutPre:           1.000e-07
TCutOSV:           1.000e-06
TCutDOij:          1.000e-05
TCutDO:            5.000e-03
TCutC:             1.000e-04
TCutCPAO:          1.000e-03
TCutCMO:           1.000e-03
TScaleDOMP2PreScr: 2.000e+00
TScaleMKNMP2PreScr:1.000e+01
TScalePNOMP2PreScr:1.000e+00
PAO overlap thresh 1.000e-08
Using PNOs for Singles Fock computation
Use new domains
Use fully linear algorithm
TCutTNO:           1.000e-09
TCutMP2Pairs:      1.000e-06
TCutDOStrong:      1.000e-02
TCutDOWeak:        2.000e-02
TCutMKNStrong:     1.000e-02
TCutMKNWeak:       1.000e-01
NTCutTNO:          1

--------------------------
Mulliken population of the LMOs            ... ok
Performing proximity check                 ... No problems found
Calculating differential overlap integrals ... ok

--------------------------
ELECTRON PAIR PRESCREENING
--------------------------

Dipole-based pair screening          .... used

   TCutDOij = 1.000000e-05
   TCutPre  = 1.000000e-07
   .... Finished loop over pairs
Total time spent in the prescreening                  ...     0.000 sec
Time for pair-prescreening                            ...     0.000 sec
Time for pairlist organization                        ...     0.000 sec
Number of pairs skipped by pre-screening              ... 0
sum of pair energies estimated for screened out pairs ...       0.000000000000 Eh
Thresholds for map construction and integral transformation for crude MP2:
   TCutMKN                    ...     1.0e-02
   TCutDO                     ...     1.0e-02
   TCutPairs                  ...     1.0e-05
   TCutPNO_CrudeMP2           ...     1.0e-07
   TCutPNOSingles_CrudeMP2    ...     3.0e-09
--------------------------------
LOCAL RI TRANSFORMATION (IAVPAO)
--------------------------------

Orbital window:       2 to 9
Number of PAOs:     184
Basis functions:    184 (64 shells)
Aux. functions:    1000 (248 shells)
Use SHARK:           on

Processing maps (0.0 sec)
Average map sizes:
   Aux shells -> MOs               8.0
   Aux shells -> PAOs            184.0
   MOs        -> AO shells        64.0
   PAOs       -> AO shells        64.0

Calculating integrals (0.1 sec, 11.242 MB)
Sorting integrals (0.0 sec, 11.231 MB)
Total time for the integral transformation: 0.2 sec
--------------------------------
INITIAL GUESS AND PNO GENERATION
--------------------------------

Populations of internal orbitals onto Fragments:
   2:      1.030    0.007  assigned to fragment   1
   3:      0.996    0.015  assigned to fragment   1
   4:      0.000    1.000  assigned to fragment   2
   5:      0.000    1.005  assigned to fragment   2
   6:      0.998    0.003  assigned to fragment   1
   7:      0.998    0.003  assigned to fragment   1
   8:      0.001    0.999  assigned to fragment   2
   9:      0.016    1.016  assigned to fragment   2

Summary assignment:
   4 orbitals assigned to fragment   1
   4 orbitals assigned to fragment   2

PNO truncation parameters                   .... 
    PAOOverlapThresh   =        1.000e-08

    TCutPairs          =        1.000e-05
    TCutPNO            =        1.000e-07
    TCutPNOSingles     =        3.000e-09
    TCutMP2Pairs       =        1.000e-06
    TCutMKN            =        1.000e-02
    TCutDO             =        1.000e-02

Pair selection                          .... not used
Type of local MP2 treatment                 .... semi-local MP2
Strategy for PNO selection                  .... occupation number selection
Pair density normalization                  .... MP2 norm
Spin component scaling                      .... not used

   .... Finished loop over pairs
Making pair pair interaction lists          ... 
Pair pair interaction statistics
Nr. of pairs:                        36
Nr. of Singles:                       8
Average (per pair domain)               (Total):
Atoms:                              6.0 (6)
PNOs:                               3.9
PAOs:                  184.0 (184)
Aux functions:                    528.9 (1000)
AuxAtoms:                           2.4 (6)
EXT1 basis functions:             184.0 (184)
Interacting Pairs:                  3.0 (36)
Interacting Pairs - Singles:        8.0 (8)
Average (per Single domain):
Atoms (Singles):                    6.0 (6)
PNOs (Singles):                    77.6
Basis functions (Singles):        184.0 (184)
Interacting Singles - Singles:      8.0 (8)
Interacting Singles - Pairs:       36.0 (36)
done

                       ===========================
                         36 OF   36 PAIRS ARE KEPT CCSD PAIRS
                          0 OF   36 PAIRS ARE KEPT MP2 PAIRS FOR (T)
                          0 OF   36 PAIRS ARE SKIPPED
                       ===========================

Total time spent in the initial guess                 ...     0.112 sec
Pair domain construction                              ...     0.000 sec
Time for calculating MP2 Guess in PAOs                ...     0.032 sec
     Time for Local metric generation                 ...     0.000 sec
     Time for Local Kij generation                    ...     0.011 sec
     Time for Local MP2 calculation                   ...     0.001 sec
     Time for LMP2 iterations                         ...     0.000 sec
          prep and other time                         ...     0.000 sec
          Time for sigma                              ...     0.000 sec (    0.000 sec in k-loop)
          Time for DIIS                               ...     0.000 sec
          Time for Update                             ...     0.000 sec
      Time for LMP2 I/O                               ...     0.000 sec
      Time for Initial PNO                            ...     0.000 sec
Time for generating PNOs                              ...     0.004 sec
Time for pairlist organization                        ...     0.000 sec
Time for pair-pair interaction organization           ...     0.002 sec
Size of the domain VM**-1/2 file                      ...         0 MB
SL-MP2 correlation energy (all non-screened pairs)    ...      -0.525819653861 Eh

Initial PNO correlation energy                        ...      -0.525641467180 Eh
sum of pair energies prescreened and skipped MP2 pairs...       0.000000000000 Eh
sum of pair energies of crude MP2 skipped pairs only  ...       0.000000000000 Eh
sum of MP2 pair energies for pairs that were not kept ...       0.000000000000 Eh
sum of PNO error estimates for the kept pairs         ...      -0.000178186681 Eh
                                                          --------------------
sum of all corrections                                         -0.000178186681
Initial total correlation energy                               -0.525819653861
Thresholds for map construction and integral transformation for fine MP2 and CCSD(T) calculation:
   TCutMKN   ...     1.0e-03
   TCutDO    ...     5.0e-03
   TCutPairs ...     1.0e-05
   TCutCMO   ...     1.0e-03
   TCutCPAO  ...     1.0e-03

Thresholds for map construction and integral transformation for strong Triples:
   TCutMKN   ...     1.0e-02
   TCutDO    ...     1.0e-02
   TCutCMO   ...     1.0e-03
   TCutCPAO  ...     1.0e-03

Thresholds for map construction and integral transformation for weak Triples:
   TCutMKN   ...     1.0e-01
   TCutDO    ...     2.0e-02
   TCutCMO   ...     1.0e-03
   TCutCPAO  ...     1.0e-03

--------------------------------
LOCAL RI TRANSFORMATION (IAVPAO)
--------------------------------

Orbital window:       2 to 9
Number of PAOs:     184
Basis functions:    184 (64 shells)
Aux. functions:    1000 (248 shells)
Use SHARK:           on

Processing maps (0.0 sec)
Average map sizes:
   Aux shells -> MOs               8.0
   Aux shells -> PAOs            184.0
   MOs        -> AO shells        64.0
   PAOs       -> AO shells        64.0

Calculating integrals (0.1 sec, 11.242 MB)
Sorting integrals (0.0 sec, 11.231 MB)
Total time for the integral transformation: 0.2 sec
--------------------------------
INITIAL GUESS AND PNO GENERATION
--------------------------------

Populations of internal orbitals onto Fragments:
   2:      1.030    0.007  assigned to fragment   1
   3:      0.996    0.015  assigned to fragment   1
   4:      0.000    1.000  assigned to fragment   2
   5:      0.000    1.005  assigned to fragment   2
   6:      0.998    0.003  assigned to fragment   1
   7:      0.998    0.003  assigned to fragment   1
   8:      0.001    0.999  assigned to fragment   2
   9:      0.016    1.016  assigned to fragment   2

Summary assignment:
   4 orbitals assigned to fragment   1
   4 orbitals assigned to fragment   2

PNO truncation parameters                   .... 
    ScaleTCutPNO       =        1.000e-02
    PAOOverlapThresh   =        1.000e-08

    TCutPairs          =        1.000e-05
    TCutPNO            =        1.000e-07
    TCutPNOSingles     =        3.000e-09
    TCutMP2Pairs       =        1.000e-06
    TCutMKN            =        1.000e-03
    TCutDO             =        5.000e-03

Pair selection                          .... not used
Type of local MP2 treatment                 .... full local PMP2
Strategy for PNO selection                  .... occupation number selection
Pair density normalization                  .... MP2 norm
Spin component scaling                      .... not used

PASS-1: Formation of initial guess LMP2 amplitudes
Initial amplitudes guess done. Entering LMP2 iteration loop:
   Max. no of iterations          ...  50
   Energy convergence tolerance   ...    1.0e-07
   Residual convergence tolerance ...    5.0e-07
   Fock matrix cutoff             ...    1.0e-05 Eh
   DIIS convergence acceleration parameters:
        Max # vectors in DIIS     ... 7
        Start iteration of DIIS   ... 0
        Levelshift                ... 2.000e-01
        Damping factor 1          ... 5.000e-01
        Damping factor 2          ... 1.000e+00
   L-MP2 PNO cut-off              ...   1.0e-09
   L-MP2 PNO cut-off (core)       ...   1.0e-11
504 of 504 terms in k-loop evaluated.

                           *** Turning on DIIS ***
LMP2-Iter=   0:  ELMP2= -0.536215057936  DE=   1.0e-02 RMAX=   4.8e-03
LMP2-Iter=   1:  ELMP2= -0.541619315211  DE=   5.4e-03 RMAX=   2.2e-03
LMP2-Iter=   2:  ELMP2= -0.542404677029  DE=   7.9e-04 RMAX=   4.0e-04
LMP2-Iter=   3:  ELMP2= -0.542506926839  DE=   1.0e-04 RMAX=   1.5e-04
LMP2-Iter=   4:  ELMP2= -0.542515235997  DE=   8.3e-06 RMAX=   1.8e-05
LMP2-Iter=   5:  ELMP2= -0.542515142783  DE=   9.3e-08 RMAX=   6.1e-06
LMP2-Iter=   6:  ELMP2= -0.542515093641  DE=   4.9e-08 RMAX=   6.0e-07
LMP2-Iter=   7:  ELMP2= -0.542515085949  DE=   7.7e-09 RMAX=   1.7e-07
LMP2-Iter=   8:  ELMP2= -0.542515089061  DE=   3.1e-09 RMAX=   2.8e-08 => CONVERGED
PASS-2: Formation of Pair natural orbitals
   .... Finished loop over pairs
Process  1:   (    4,     2):  98.788929825372 %
Process  1:   (    4,     3):  99.640103154620 %
Process  1:   (    4,     4):  99.994557877073 %
Process  1:   (    4):  99.999900816191 % (IJ)
Process  2:   (    5,     2):  98.964000037438 %
Process  2:   (    5,     3):  99.629585816729 %
Process  2:   (    5,     4):  99.995232245856 %
Process  3:   (    5,     5):  99.993935492106 %
Process  3:   (    6,     2):  99.994004688200 %
Process  3:   (    6,     3):  99.993746072952 %
Process  3:   (    5):  99.999894466440 % (IJ)
Process  4:   (    6,     4):  98.891609994463 %
Process  4:   (    6,     5):  98.629930094221 %
Process  4:   (    6,     6):  99.994652574008 %
Process  4:   (    6):  99.999852535239 % (IJ)
Process  5:   (    7,     2):  99.994162825913 %
Process  5:   (    7,     3):  99.993009318216 %
Process  5:   (    7,     4):  98.704619569917 %
Process  6:   (    7,     5):  98.761163455453 %
Process  6:   (    7,     6):  99.992317962572 %
Process  6:   (    7,     7):  99.994102027633 %
Process  6:   (    7):  99.999833924558 % (IJ)
Process  7:   (    8,     2):  98.912875098704 %
Process  7:   (    8,     3):  99.542007489398 %
Process  7:   (    8,     4):  99.994816498637 %
Process  8:   (    8,     5):  99.994808794261 %
Process  8:   (    8,     6):  98.365904700838 %
Process  8:   (    8,     7):  98.501394956294 %
Process  9:   (    8,     8):  99.994747430553 %
Process  9:   (    9,     2):  99.679304933668 %
Process  9:   (    9,     3):  99.867281406321 %
Process  9:   (    8):  99.999906017383 % (IJ)
Process 10:   (    9,     4):  99.993855734544 %
Process 10:   (    9,     5):  99.993905881883 %
Process 10:   (    9,     6):  99.626048548935 %
Process 11:   (    9,     7):  99.601410401506 %
Process 11:   (    9,     8):  99.994344488487 %
Process 11:   (    9,     9):  99.993479917918 %
Process 11:   (    9):  99.999802769613 % (IJ)

  - Occupation number analysis for DOUBLES-pairs:

   Orbital Indices     % trace(D) 
  -----------------------------------
Process  0:   (    2,     2):  99.992412518292 %
Process  0:   (    3,     2):  99.994546693558 %
Process  0:   (    3,     3):  99.989968013099 %

  - Occupation number analysis for SINGLES-pairs:

   Orbital Index       % trace(D) 
  -----------------------------------
Process  0:   (    2):  99.999791825818 % (IJ)
Process  0:   (    3):  99.999718046603 % (IJ)

 PNO Occupation Number Statistics: 
  | Av. % of trace(Dij) retained        ...  99.610632681657
  | sigma^2 in % of trace(Dij) retained ...   2.89e-01
  | Av. % of trace(Di) retained         ...  99.999837550231
  | sigma^2 in % of trace(Di) retained  ...   3.72e-09
 Distributions of % trace(Dij) recovered:
  |       >= 99.9  ...    20 ( 55.6 % of all pairs)
  |   [90.0, 99.0) ...     9 ( 25.0 % of all pairs)
  |   [99.0, 99.9) ...     7 ( 19.4 % of all pairs)
 Distributions of % trace(Di) recovered :
  |       >= 99.9  ...     8 (100.0 % of all I-pairs )

Making pair pair interaction lists          ... 
Pair pair interaction statistics
Nr. of pairs:                        36
Nr. of Singles:                       8
Average (per pair domain)               (Total):
Atoms:                              6.0 (6)
PNOs:                               4.0
PAOs:                  184.0 (184)
Aux functions:                    847.0 (1000)
AuxAtoms:                           5.0 (6)
EXT1 basis functions:             184.0 (184)
Interacting Pairs:                  3.0 (36)
Interacting Pairs - Singles:        8.0 (8)
Average (per Single domain):
Atoms (Singles):                    6.0 (6)
PNOs (Singles):                    81.8
Basis functions (Singles):        184.0 (184)
Interacting Singles - Singles:      8.0 (8)
Interacting Singles - Pairs:       36.0 (36)
done

                       ===========================
                         36 OF   36 PAIRS ARE KEPT
                       ===========================

Total time spent in the initial guess                 ...     0.612 sec
Pair domain construction                              ...     0.000 sec
Time for calculating MP2 Guess in PAOs                ...     0.134 sec
     Time for Local metric generation                 ...     0.000 sec
     Time for Local Kij generation                    ...     0.121 sec
     Time for Local MP2 calculation                   ...     0.001 sec
     Time for LMP2 iterations                         ...     0.337 sec
          prep and other time                         ...     0.002 sec
          Time for sigma                              ...     0.133 sec (    0.120 sec in k-loop)
          Time for DIIS                               ...     0.168 sec
          Time for Update                             ...     0.007 sec
      Time for LMP2 I/O                               ...     7.969 sec
      Time for Initial PNO                            ...     0.021 sec
Time for generating PNOs                              ...     0.002 sec
Time for pairlist organization                        ...     0.000 sec
Time for pair-pair interaction organization           ...     0.002 sec
Size of the domain VM**-1/2 file                      ...       234 MB
Size of the P2V_red file                              ...         2 MB
L-MP2 correlation energy (all non-screened pairs)     ...      -0.542515089061 Eh
L-MP2 PNO error correction                            ...      -0.000002674460 Eh
                                                          --------------------
Initial total L-MP2 energy (non-screened pairs)       ...      -0.542517763521 Eh

Initial PNO correlation energy                        ...      -0.542345321232 Eh
sum of pair energies estimated for screened out pairs ...       0.000000000000 Eh
sum of MP2 pair energies for pairs that were not kept ...       0.000000000000 Eh
sum of PNO error estimates for the kept pairs         ...      -0.000172442289 Eh
                                                          --------------------
sum of all corrections                                         -0.000172442289
Initial total correlation energy                               -0.542517763521
Thresholds for map construction and integral transformation for fine MP2 and CCSD(T) calculation:
   TCutMKN   ...     1.0e-03
   TCutDO    ...     5.0e-03
   TCutPairs ...     1.0e-05
   TCutCMO   ...     1.0e-03
   TCutCPAO  ...     1.0e-03

Time for aux screen maps:            0.001
Time for maps after fine MP2:            0.003
-----------------------------
LOCAL RI TRANSFORMATION (IJV)
-----------------------------

Orbital window:       2 to 9
Basis functions:    184 (64 shells)
Aux. functions:    1000 (248 shells)
Use SHARK:           on

Processing maps (0.0 sec)
Average map sizes:
   Aux shells -> MOs(i)            8.0
   Aux shells -> MOs(j)            8.0
   MOs        -> AO shells        64.0

Calculating integrals (0.1 sec, 0.500 MB)
Sorting integrals (0.0 sec, 0.488 MB)
Total time for the integral transformation: 0.1 sec
--------------------------------
LOCAL RI TRANSFORMATION (VABPAO)
--------------------------------

Number of PAOs:     184
Basis functions:    184 (64 shells)
Aux. functions:    1000 (248 shells)
Use SHARK:           on

Processing maps (0.0 sec)
Average map sizes:
   Aux shells -> PAOs            184.0
   PAOs       -> AO shells        64.0

Calculating integrals (0.2 sec, 258.312 MB)
Finished
Precomputing pair/pair interactions        ... 

-------------------------------------
Pair Pair Term precalculation with     
RI-(ij|mn) and (im|jn) transformation  
ON THE FLY                             
-------------------------------------

Max core memory to be used                    ...   4000 MB
Number of batches needed                      ...      1 
Average Memory used per batch                 ...      0 MB
Pair Pair terms per batch                     ...      0 
Total number of pairs                         ...     36 
Memory needed for all IJPairs                 ...      0 MB
   IBatch   1 (of   1)              ... done (    4.038 sec)
Total EXT                           ...           4.038 sec

Detailed timings: 
Reading/generating VMAT                    ...          0.014 sec
Reading 3-index integrals                  ...          0.124 sec
Sorting of data                            ...          1.115 sec
Get Pair1 ...          0.004 sec
Get Pair2 ...          0.028 sec
Get Pair3 ...          0.028 sec
Get Pair4 ...          0.000 sec
Get Pair5 ...          0.028 sec
Get Pair6 ...          0.026 sec
Orthogonalization of the 3-index integrals ...          0.153 sec
Multipl. of 3-index integrals              ...          1.586 sec
GetNewMat              ...          0.096 sec
Generating IJMN (orthog. + mult.)          ...          3.331 sec
Generating IJMN (orthog. + mult.) 1         ...          3.172 sec
Generating IJMN (orthog. + mult.) 2         ...          0.000 sec
Generating IJMN (orthog. + mult.) 3         ...          0.081 sec
Generating IJMN (orthog. + mult.) 4         ...          0.079 sec
Generating IMJN (orthog. + mult.)          ...          0.220 sec

done (    4.119 sec)
---------------------
RI-PNO TRANSFORMATION
---------------------

Total Number of PNOs                   ...  1663
Average number of PNOs per pair        ...    46
Maximal number of PNOs per pair        ...    69
   #pairs with  1 -  5 PNOs   :    0
   #pairs with  6 - 10 PNOs   :    0
   #pairs with 11 - 15 PNOs   :    2
   #pairs with 16 - 20 PNOs   :    6
   #pairs with 21 - 25 PNOs   :    1
   #pairs with 26 - 30 PNOs   :    1
   #pairs with 31 - 35 PNOs   :    3
   #pairs with 36 - 40 PNOs   :    2
   #pairs with 41 - 45 PNOs   :    0
   #pairs with 46 - 50 PNOs   :    1
   #pairs with 56 - 60 PNOs   :    8
   #pairs with 61 - 65 PNOs   :    6
   #pairs with 66 - 70 PNOs   :    6

Generation of (ij|ab)[P] integrals            ... on
Generation of (ia|bc)[P],(ja|bc)[P] integrals ... on
Storage of 3 and 4 external integrals         ... on
Generation of ALL (ka|bc)[P] integrals        ... on
Keep RI integrals in memory                   ... off
PNO Integral generation
Max core memory to be used                    ...   4000 MB
Number of batches needed                      ...      1 
Memory available for IJPairs                  ...   3940 MB
Memory needed per IJPair                      ...     46 MB
Total number of pairs                         ...     36 
Memory needed for all IJPairs                 ...   1640 MB

Ibatch:  1 (of  1)
Starting 2-4 index PNO integral generation ... done

Timings:
Total PNO integral transformation time     ...          2.991 sec
Reading/generating VMAT                    ...          0.011 sec
Reading 3-index integrals                  ...          0.096 sec
Sorting of data (for reading)              ...          0.098 sec
      Sorting of data (for reading) 1      ...          0.000 sec
[...]
    6     3  :     -0.025946480 (  9.53)      -0.024282630     -0.001603358     -0.000060492       4      63
    7     3  :     -0.025794391 (  9.47)      -0.024180286     -0.001554127     -0.000059979       2      64
    7     6  :     -0.022507000 (  8.27)      -0.022382047     -0.000124486     -0.000000467       1      64

Overall summary of excitation mechanisms for this fragment:
  Total direct double excitations (i->a(ij))(j->b(ij))                      -0.262418434 (96.369 per cent)
  Total single charge-transfer    (i->a(ij))(j->b(X)) & (i->a(X))(j->b(ij)) -0.008941235 ( 3.284 per cent)
  Total double charge transfer    (i->a(X))(j->b(X))                        -0.000946781 ( 0.348 per cent)
                                                       -----------------------------
  Sum                                                  -0.272306450
  Consistency check                                    -0.272306450
 done 
 
FRAGMENT    2 =  -0.272557053941 Eh ...   

----------------------------------------------------------------------------------------------------------------------------------------
    i   j  type :        EP         (%)         Direct-            Single             Double         PNO in Mulliken                   
                                           Double Excitation     Charge-Transfer    Charge-Transfer  population range                   
                                                                                                      <0.7   >0.7                       
----------------------------------------------------------------------------------------------------------------------------------------
    8     8  :     -0.031572488 ( 11.58)      -0.031572488      0.000000000      0.000000000       1      55
    9     9  :     -0.030534247 ( 11.20)      -0.030534247      0.000000000      0.000000000       2      55
    5     4  :     -0.029887320 ( 10.97)      -0.029887320      0.000000000      0.000000000       0      64
    8     4  :     -0.026434825 (  9.70)      -0.026434825      0.000000000      0.000000000       1      63
    8     5  :     -0.026391149 (  9.68)      -0.026391149      0.000000000      0.000000000       0      64
    9     4  :     -0.026359962 (  9.67)      -0.026359962      0.000000000      0.000000000       2      62
    9     5  :     -0.026297503 (  9.65)      -0.026297503      0.000000000      0.000000000       2      62
    4     4  :     -0.026270265 (  9.64)      -0.026270265      0.000000000      0.000000000       1      57
    5     5  :     -0.026267218 (  9.64)      -0.026267218      0.000000000      0.000000000       1      57
    9     8  :     -0.022542077 (  8.27)      -0.022542077      0.000000000      0.000000000       1      65

Overall summary of excitation mechanisms for this fragment:
  Total direct double excitations (i->a(ij))(j->b(ij))                      -0.272557054 (100.000 per cent)
  Total single charge-transfer    (i->a(ij))(j->b(X)) & (i->a(X))(j->b(ij))  0.000000000 (-0.000 per cent)
  Total double charge transfer    (i->a(X))(j->b(X))                         0.000000000 (-0.000 per cent)
                                                       -----------------------------
  Sum                                                  -0.272557054
  Consistency check                                    -0.272557054
 done 
 
 

Decomposition of the inter-fragments strong pairs energies .. 

FRAGMENTS    2,1 =  -0.005892402968 Eh ...   

------------------------------------------------------------------------------------------------------------------------------------------------
    i   j  type :         EP        (%)         Dipole-            Cross              Charge        Charge          PNO in Mulliken            
                                                 Dipole           Excitation          Transfer      Transfer        population range            
                                                                                                                      <0.7  >0.7                
------------------------------------------------------------------------------------------------------------------------------------------------
    9     3  :     -0.002123550 ( 36.04)      -0.000951029     -0.000044950     -0.000923054     -0.000204517       2      48
    9     2  :     -0.000602125 ( 10.22)      -0.000397515      0.000001353     -0.000081510     -0.000124453       3      31
    5     3  :     -0.000506206 (  8.59)      -0.000154534     -0.000009164     -0.000319738     -0.000022770       5      31
    4     3  :     -0.000501680 (  8.51)      -0.000110439     -0.000008724     -0.000370634     -0.000011883       6      30
    9     7  :     -0.000440038 (  7.47)      -0.000253069      0.000000104     -0.000088732     -0.000098340       3      30
    9     6  :     -0.000437391 (  7.42)      -0.000265517      0.000001323     -0.000079171     -0.000094027       5      28
    8     3  :     -0.000392133 (  6.65)      -0.000099968     -0.000001433     -0.000284706     -0.000006026       3      27
    5     2  :     -0.000126078 (  2.14)      -0.000083077     -0.000000831     -0.000030345     -0.000011825       3      18
    4     2  :     -0.000117093 (  1.99)      -0.000090113     -0.000000307     -0.000015047     -0.000011626       6      13
    4     6  :     -0.000105823 (  1.80)      -0.000075056     -0.000000075     -0.000019416     -0.000011276       1      19
    8     2  :     -0.000101634 (  1.72)      -0.000081308      0.000000827     -0.000014498     -0.000006654       0      18
    5     7  :     -0.000098137 (  1.67)      -0.000063201     -0.000000155     -0.000024269     -0.000010512       2      18
    4     7  :     -0.000097638 (  1.66)      -0.000049472     -0.000001252     -0.000035342     -0.000011572       4      15
    5     6  :     -0.000096253 (  1.63)      -0.000060043     -0.000000049     -0.000022191     -0.000013970       4      15
    8     7  :     -0.000078015 (  1.32)      -0.000050839      0.000000198     -0.000022772     -0.000004602       1      14
    8     6  :     -0.000068611 (  1.16)      -0.000045882      0.000000145     -0.000017226     -0.000005647       0      14
----------------------------------------------------------------------------------------------------------------------------------------------------------
                   -0.005892403               -0.002831062     -0.000062990     -0.002348650     -0.000649701 
                                                 ( 48.05%)        (  1.07%)        ( 39.86%)        ( 11.03%)
----------------------------------------------------------------------------------------------------------------------------------------------------------

Overall summary of excitation mechanisms for this fragment pair:
  Total local dipole excitations    (i->a(i))(j->b(j)) -0.002831062 (48.046 per cent)
  Total Cross excitations           (i->a(j))(j->b(i)) -0.000062990 ( 1.069 per cent)
  Total Charge transfer excitations (i->a(i))(j->b(i)) -0.002348650 (39.859 per cent)
  Total Charge transfer excitations (i->a(j))(j->b(j)) -0.000649701 (11.026 per cent)
                                                       -----------------------------
  Sum                                                  -0.005892403
  Consistency check                                    -0.005892403
 done 
 
 
Summary Strong Pairs Energy Decomposition    
 
Intra fragment contributions: 
INTRA Fragment 1                       -0.262418434 
INTRA Fragment 2                       -0.272557054 

Charge transfer contributions: 
Charge Transfer 1 to 2                 -0.012236666 
Charge Transfer 2 to 1                 -0.000649701 

Dispersion contributions: 
Dispersion  2,1                        -0.002894052 

Singles contributions:                   
Singles energy                          0.000001309 
 

------------------------------------------------- 
FINAL SUMMARY DLPNO-CCSD ENERGY DECOMPOSITION (Eh)
------------------------------------------------- 
 
Intrafragment REF. energy:                   
Intra fragment   1 (REF.)              -76.027114339     
Intra fragment   2 (REF.)              -76.025736321     

Interaction of fragments  2 and  1:  
Electrostatics (REF.)                  -0.058181753 
Exchange (REF.)                        -0.010090664 
Dispersion (strong pairs)              -0.002894052 
Dispersion (weak pairs)                -0.000088976 

Sum of non dispersive correlation terms: 
Non dispersion (strong pairs)          -0.547860546  
Non dispersion (weak pairs)            -0.000083467  

#Time for LED analysis ..       2.0 (sec)



--------------------------------------------------------------------------------
                                    TIMINGS
--------------------------------------------------------------------------------


Total execution time                   ...       64.895 sec

Localization of occupied MO's          ...        0.253 sec (  0.4%)
Fock Matrix Formation                  ...        0.567 sec (  0.9%)
Global overlap, Fock, MKN matrices     ...        0.173 sec (  0.3%)
Differential overlap integrals         ...        0.611 sec (  0.9%)
Organizing maps                        ...        0.008 sec (  0.0%)
RI 3-index integral generations        ...        0.639 sec (  1.0%)
RI-PNO integral transformation         ...        7.155 sec ( 11.0%)
Initial Guess                          ...        0.735 sec (  1.1%)
DIIS Solver                            ...        0.260 sec (  0.4%)
State Vector Update                    ...        0.004 sec (  0.0%)
Sigma-vector construction              ...       25.752 sec ( 39.7%)
  <D|H|D>(0-ext)                       ...        0.117 sec (  0.5% of sigma)
  <D|H|D>(2-ext Fock)                  ...        0.002 sec (  0.0% of sigma)
  <D|H|D>(2-ext)                       ...        0.432 sec (  1.7% of sigma)
  <D|H|D>(4-ext)                       ...        4.982 sec ( 19.3% of sigma)
  <D|H|D>(4-ext-corr)                  ...       14.611 sec ( 56.7% of sigma)
  CCSD doubles correction              ...        0.016 sec (  0.1% of sigma)
  <S|H|S>                              ...        0.143 sec (  0.6% of sigma)
  <S|H|D>(1-ext)                       ...        0.015 sec (  0.1% of sigma)
  <S|H|D>(3-ext)                       ...        0.075 sec (  0.3% of sigma)
  Fock-dressing                        ...        1.010 sec (  3.9% of sigma)
  Singles amplitudes                   ...        0.075 sec (  0.3% of sigma)
  (ik|jl)-dressing                     ...        0.080 sec (  0.3% of sigma)
  (ij|ab),(ia|jb)-dressing             ...        0.219 sec (  0.9% of sigma)
  Pair energies                        ...        0.002 sec (  0.0% of sigma)
Total Time for computing (T)           ...       26.740 sec ( 41.2% of ALL)
Local Energy Decomposition             ...        2.018 sec (  3.1% of ALL)


Maximum memory used throughout the entire MDCI-calculation: 951.6 MB

-------------------------   --------------------
FINAL SINGLE POINT ENERGY      -152.690114273380
-------------------------   --------------------


                            ***************************************
                            *     ORCA property calculations      *
                            ***************************************


  WARNING: The energy has been calculated at the MDCI level but the densities
           used in the property calculations are still SCF densities
           MDCI response densities have not been calculated 
           use %mdci Density linearized end
           or  %mdci Density unrelaxed end
           or  %mdci Density orbopt end

                                    ---------------------
                                    Active property flags
                                    ---------------------
   (+) Dipole Moment


------------------------------------------------------------------------------
                       ORCA ELECTRIC PROPERTIES CALCULATION
------------------------------------------------------------------------------

Dipole Moment Calculation                       ... on
Quadrupole Moment Calculation                   ... off
Polarizability Calculation                      ... off
GBWName                                         ... frag42.gbw
Electron density                                ... frag42.scfp
The origin for moment calculation is the CENTER OF MASS  = ( 5.561680,  0.065102  0.214683)

-------------
DIPOLE MOMENT
-------------
                                X             Y             Z
Electronic contribution:     -0.02198       0.09816       0.26528
Nuclear contribution   :      0.57767       0.97241      -1.52203
                        -----------------------------------------
Total Dipole Moment    :      0.55569       1.07057      -1.25675
                        -----------------------------------------
Magnitude (a.u.)       :      1.74193
Magnitude (Debye)      :      4.42764



--------------------
Rotational spectrum 
--------------------
 
Rotational constants in cm-1:     7.800936     0.242732     0.240556 
Rotational constants in MHz : 233866.175269  7276.917767  7211.699282 

 Dipole components along the rotational axes: 
x,y,z [a.u.] :    -1.424511     0.558321    -0.832691 
x,y,z [Debye]:    -3.620820     1.419140    -2.116531 

 

--------------------------------
SUGGESTED CITATIONS FOR THIS RUN
--------------------------------

Below you find a list of papers that are relevant to this ORCA run
We neither can nor want to force you to cite these paper, but we appreciate if you do
You receive ORCA, which is the product of a lot of hard work by many enthusiastic individuals, for free
The *only* thing we kindly ask in return is that you cite our papers,
We deeply appreciate it, if you show your appreciation for ORCA but *not* just citing the generic ORCA reference.

Please note that relegating all ORCA citations to the supporting information does *not* help us.
SI sections are not index - citations you put there will not count into our citation statistics
But we need these citations in order to attract the funding ressources that allow us to do what we are doing

Therefore, please consider citing at least a few of the papers listed below, if you are a happy ORCA user

In addition to the list printed below, the program has created the file frag42.bibtex that contains the list in bibtex format
In this format, you can import it easily in all common literature databanks and citation aid programs


List of essential papers. We consider these as the minimum necessary citations

  1. Neese,F.
     Software update: the ORCA program system, version 5.0
     WIRES Comput. Molec. Sci., 2022 12(1)e1606
     doi.org/10.1002/wcms.1606

List of papers to cite with high priority. The work reported in these papers was absolutely
necessary for this run to complete.
Our perspective: the developers of density functionals and basis sets usually get cited in chemistry papers
Good! But without the algorithms to do something with them, the functionals or basis sets would not do anything.
Hence, in our opinion, the algorithm design and method developments papers are equally worthy of getting cited

  1. Neese,F.
     An improvement of the resolution of the identity approximation for the formation of the Coulomb matrix
     J. Comp. Chem., 2003 24(14)1740-1747
     doi.org/10.1002/jcc.10318
  2. Neese,F.; Wennmohs,F.; Hansen,A.; Becker,U.
     Efficient, approximate and parallel Hartree-Fock and hybrid DFT calculations. A 'chain-of-spheres' algorithm for the Hartree-Fock exchange
     Chem. Phys., 2009 356(1-3)98-109
     doi.org/10.1016/j.chemphys.2008.10.036
  3. Neese,F.; Hansen,A.; Liakos,D.G.
     Efficient and accurate approximations to the local coupled cluster singles doubles method using a truncated pair natural orbital basis
     J. Chem. Phys., 2009 131 064103
     doi.org/10.1063/1.3173827
  4. Neese,F.; Wennmohs,F.; Hansen,A.
     Efficient and accurate local approximations to coupled-electron pair approaches: An attempt to revive the pair natural orbital method
     J. Chem. Phys., 2009 130 114108
     doi.org/10.1063/1.3086717
  5. Riplinger,C.; Neese,F.
     An efficient and near linear scaling pair natural orbital based local coupled cluster method
     J. Chem. Phys., 2013 138(3)Art. No. 034106
     doi.org/10.1063/1.4773581
  6. Riplinger,C.; Sandhoefer,B.; Hansen,A.; Neese,F.
     Natural triple excitations in local coupled cluster calculations with pair natural orbitals
     J. Chem. Phys., 2013 139(13)Art. No. 134101
     doi.org/10.1063/1.4821834
  7. Riplinger,C.; Pinski,P.; Becker,U.; Valeev,E.F.; Neese,F.
     Sparse maps-A systematic infrastructure for reduced-scaling electronic structure methods. II. Linear scaling domain based pair natural orbital coupled cluster theory
     J. Chem. Phys., 2016 144 
     doi.org/10.1063/1.4939030
  8. Schneider,W.B.; Bistoni,G.; Sparta,M.; Saitow,M.; Riplinger,C.; Auer,A.A.; Neese,F.
     Decomposition of Intermolecular Interaction Energies within the Local Pair Natural Orbital Coupled Cluster Framework
     J. Theo. Comp. Chem., 2016 12 4778-4792
     doi.org/10.1021/acs.jctc.6b00523
  9. Bistoni,G.; Riplinger,C.; Minenkov,Y.; Cavallo,L.; Auer,A.A.; Neese,F.
     Treating Subvalence Correlation Effects in Domain Based Pair Natural Orbital Coupled Cluster Calculations: An Out-of-the-Box Approach
     J. Theo. Comp. Chem., 2017 13 3220-3227
     doi.org/10.1021/acs.jctc.7b00352
 10. Guo,Y.; Riplinger,C.; Becker,U.; Liakos,D.G.; Minenkov,Y.; Cavallo,L.; Neese,F.
     Communication: An improved linear scaling perturbative triples correction for the domain based local pair-natural orbital based singles and doubles coupled cluster method DLPNO-CCSD(T)
     J. Chem. Phys., 2018 148 5
     doi.org/10.1063/1.5011798
 11. Helmich-Paris,B.; de Souza,B.; Neese,F.; Izsk,R.
     An improved chain of spheres for exchange algorithm
     J. Chem. Phys., 2021 155 104109
     doi.org/doi: 10.1063/5.0058766.

List of suggested additional citations. These are papers that are important in the 'surrounding' of 
of this run, or papers that preceded the highly important papers. If you like your results we are grateful for a citation.

  1. Izsak,R.; Neese,F.
     An overlap fitted chain of spheres exchange method
     J. Chem. Phys., 2011 135 144105
     doi.org/10.1063/1.3646921
  2. Izsak,R.; Hansen,A.; Neese,F.
     The resolution of identity and chain of spheres approximations for the LPNO-CCSD singles Fock term
     Molec. Phys., 2012 110 2413-2417
     doi.org/10.1080/00268976.2012.687466
  3. Neese,F.
     The ORCA program system
     WIRES Comput. Molec. Sci., 2012 2(1)73-78
     doi.org/10.1002/wcms.81
  4. Izsak,R.; Neese,F.; Klopper,W.
     Robust fitting techniques in the chain of spheres approximation to the Fock exchange: The role of the complementary space
     J. Chem. Phys., 2013 139 
     doi.org/10.1063/1.4819264
  5. Neese,F.
     Software update: the ORCA program system, version 4.0
     WIRES Comput. Molec. Sci., 2018 8(1)1-6
     doi.org/10.1002/wcms.1327
  6. Neese,F.; Wennmohs,F.; Becker,U.; Riplinger,C.
     The ORCA quantum chemistry program package
     J. Chem. Phys., 2020 152 Art. No. L224108
     doi.org/10.1063/5.0004608
  7. Bistoni,G.
     Finding chemical concepts in the Hilbert space: Coupled cluster analyses of noncovalent interactions
     WIRES Comput. Molec. Sci., 2020 10(3)e1442
     doi.org/10.1002/wcms.1442

Timings for individual modules:

Sum of individual times         ...       70.091 sec (=   1.168 min)
GTO integral calculation        ...        0.922 sec (=   0.015 min)   1.3 %
SCF iterations                  ...        3.764 sec (=   0.063 min)   5.4 %
MDCI module                     ...       65.405 sec (=   1.090 min)  93.3 %
                             ****ORCA TERMINATED NORMALLY****
TOTAL RUN TIME: 0 days 0 hours 1 minutes 10 seconds 689 msec