                                 *****************
                                 * O   R   C   A *
                                 *****************

                                            #,                                       
                                            ###                                      
                                            ####                                     
                                            #####                                    
                                            ######                                   
                                           ########,                                 
                                     ,,################,,,,,                         
                               ,,#################################,,                 
                          ,,##########################################,,             
                       ,#########################################, ''#####,          
                    ,#############################################,,   '####,        
                  ,##################################################,,,,####,       
                ,###########''''           ''''###############################       
              ,#####''   ,,,,##########,,,,          '''####'''          '####       
            ,##' ,,,,###########################,,,                        '##       
           ' ,,###''''                  '''############,,,                           
         ,,##''                                '''############,,,,        ,,,,,,###''
      ,#''                                            '''#######################'''  
     '                                                          ''''####''''         
             ,#######,   #######,   ,#######,      ##                                
            ,#'     '#,  ##    ##  ,#'     '#,    #''#        ######   ,####,        
            ##       ##  ##   ,#'  ##            #'  '#       #        #'  '#        
            ##       ##  #######   ##           ,######,      #####,   #    #        
            '#,     ,#'  ##    ##  '#,     ,#' ,#      #,         ##   #,  ,#        
             '#######'   ##     ##  '#######'  #'      '#     #####' # '####'        



                  #######################################################
                  #                        -***-                        #
                  #          Department of theory and spectroscopy      #
                  #    Directorship and core code : Frank Neese         #
                  #        Max Planck Institute fuer Kohlenforschung    #
                  #                Kaiser Wilhelm Platz 1               #
                  #                 D-45470 Muelheim/Ruhr               #
                  #                      Germany                        #
                  #                                                     #
                  #                  All rights reserved                #
                  #                        -***-                        #
                  #######################################################


                         Program Version 5.0  -  CURRENT   -
                                (GIT: $76ccee9ca$)
                ($2022-06-14 15:14:42 +0200 $)

                  !                     WARNING:                         !
                  !         This is a DEVELOPMENT version                !

                         (BUILD: $Mi 15. Jun 00:07:41 CEST 2022$)


 With contributions from (in alphabetic order):
   Daniel Aravena         : Magnetic Suceptibility
   Michael Atanasov       : Ab Initio Ligand Field Theory (pilot matlab implementation)
   Alexander A. Auer      : GIAO ZORA, VPT2 properties, NMR spectrum
   Ute Becker             : Parallelization
   Giovanni Bistoni       : ED, misc. LED, open-shell LED, HFLD
   Martin Brehm           : Molecular dynamics
   Dmytro Bykov           : SCF Hessian
   Vijay G. Chilkuri      : MRCI spin determinant printing, contributions to CSF-ICE
   Dipayan Datta          : RHF DLPNO-CCSD density
   Achintya Kumar Dutta   : EOM-CC, STEOM-CC
   Dmitry Ganyushin       : Spin-Orbit,Spin-Spin,Magnetic field MRCI
   Miquel Garcia          : C-PCM and meta-GGA Hessian, CC/C-PCM, Gaussian charge scheme
   Yang Guo               : DLPNO-NEVPT2, F12-NEVPT2, CIM, IAO-localization
   Andreas Hansen         : Spin unrestricted coupled pair/coupled cluster methods
   Benjamin Helmich-Paris : MC-RPA, TRAH-SCF, COSX integrals
   Lee Huntington         : MR-EOM, pCC
   Robert Izsak           : Overlap fitted RIJCOSX, COSX-SCS-MP3, EOM
   Marcus Kettner         : VPT2
   Christian Kollmar      : KDIIS, OOCD, Brueckner-CCSD(T), CCSD density, CASPT2, CASPT2-K, improved NEVPT2
   Simone Kossmann        : Meta GGA functionals, TD-DFT gradient, OOMP2, MP2 Hessian
   Martin Krupicka        : Initial AUTO-CI
   Lucas Lang             : DCDCAS
   Marvin Lechner         : AUTO-CI (C++ implementation), FIC-MRCC
   Dagmar Lenk            : GEPOL surface, SMD
   Dimitrios Liakos       : Extrapolation schemes; Compound Job, initial MDCI parallelization
   Dimitrios Manganas     : Further ROCIS development; embedding schemes
   Dimitrios Pantazis     : SARC Basis sets
   Anastasios Papadopoulos: AUTO-CI, single reference methods and gradients
   Taras Petrenko         : DFT Hessian,TD-DFT gradient, ASA, ECA, R-Raman, ABS, FL, XAS/XES, NRVS
   Peter Pinski           : DLPNO-MP2, DLPNO-MP2 Gradient
   Christoph Reimann      : Effective Core Potentials
   Marius Retegan         : Local ZFS, SOC
   Christoph Riplinger    : Optimizer, TS searches, QM/MM, DLPNO-CCSD(T), (RO)-DLPNO pert. Triples
   Tobias Risthaus        : Range-separated hybrids, TD-DFT gradient, RPA, STAB
   Michael Roemelt        : Original ROCIS implementation
   Masaaki Saitow         : Open-shell DLPNO-CCSD energy and density
   Barbara Sandhoefer     : DKH picture change effects
   Avijit Sen             : IP-ROCIS
   Kantharuban Sivalingam : CASSCF convergence, NEVPT2, FIC-MRCI
   Bernardo de Souza      : ESD, SOC TD-DFT
   Georgi Stoychev        : AutoAux, RI-MP2 NMR, DLPNO-MP2 response
   Willem Van den Heuvel  : Paramagnetic NMR
   Boris Wezisla          : Elementary symmetry handling
   Frank Wennmohs         : Technical directorship


 We gratefully acknowledge several colleagues who have allowed us to
 interface, adapt or use parts of their codes:
   Stefan Grimme, W. Hujo, H. Kruse, P. Pracht,  : VdW corrections, initial TS optimization,
                  C. Bannwarth, S. Ehlert          DFT functionals, gCP, sTDA/sTD-DF
   Ed Valeev, F. Pavosevic, A. Kumar             : LibInt (2-el integral package), F12 methods
   Garnet Chan, S. Sharma, J. Yang, R. Olivares  : DMRG
   Ulf Ekstrom                                   : XCFun DFT Library
   Mihaly Kallay                                 : mrcc  (arbitrary order and MRCC methods)
   Jiri Pittner, Ondrej Demel                    : Mk-CCSD
   Frank Weinhold                                : gennbo (NPA and NBO analysis)
   Christopher J. Cramer and Donald G. Truhlar   : smd solvation model
   Lars Goerigk                                  : TD-DFT with DH, B97 family of functionals
   V. Asgeirsson, H. Jonsson                     : NEB implementation
   FAccTs GmbH                                   : IRC, NEB, NEB-TS, DLPNO-Multilevel, CI-OPT
                                                   MM, QMMM, 2- and 3-layer-ONIOM, Crystal-QMMM,
                                                   LR-CPCM, SF, NACMEs, symmetry and pop. for TD-DFT,
                                                   nearIR, NL-DFT gradient (VV10), updates on ESD,
                                                   ML-optimized integration grids
   S Lehtola, MJT Oliveira, MAL Marques          : LibXC Library
   Liviu Ungur et al                             : ANISO software


 Your calculation uses the libint2 library for the computation of 2-el integrals
 For citations please refer to: http://libint.valeyev.net

 Your ORCA version has been built with support for libXC version: 5.2.2
 For citations please refer to: https://tddft.org/programs/libxc/

 This ORCA versions uses:
   CBLAS   interface :  Fast vector & matrix operations
   LAPACKE interface :  Fast linear algebra routines
   SCALAPACK package :  Parallel linear algebra routines
   Shared memory     :  Shared parallel matrices


================================================================================

----- Orbital basis set information -----
Your calculation utilizes the basis: aug-cc-pVTZ 
    H, B-Ne : Obtained from the ccRepo (grant-hill.group.shef.ac.uk/ccrepo) Feb. 2017
              R. A. Kendall, T. H. Dunning, Jr., R. J. Harrison, J. Chem. Phys. 96, 6796 (1992)
         He : Obtained from the ccRepo (grant-hill.group.shef.ac.uk/ccrepo) Feb. 2017
              D. E. Woon, T. H. Dunning, Jr., J. Chem. Phys. 100, 2975 (1994)
  Li-Be, Na : Obtained from the ccRepo (grant-hill.group.shef.ac.uk/ccrepo) Feb. 2017
              B. P. Prascher, D. E. Woon, K. A. Peterson, T. H. Dunning, Jr., A. K. Wilson, Theor. Chem. Acc. 128, 69 (2011)
         Mg : Obtained from the Peterson Research Group Website (tyr0.chem.wsu.edu/~kipeters) Feb. 2017
              B. P. Prascher, D. E. Woon, K. A. Peterson, T. H. Dunning, Jr., A. K. Wilson, Theor. Chem. Acc. 128, 69 (2011)
      Al-Ar : Obtained from the ccRepo (grant-hill.group.shef.ac.uk/ccrepo) Feb. 2017
              D. E. Woon, T. H. Dunning, Jr., J. Chem. Phys. 98, 1358 (1993)
      Sc-Zn : Obtained from the ccRepo (grant-hill.group.shef.ac.uk/ccrepo) Feb. 2017
              N. B. Balabanov, K. A. Peterson, J. Chem. Phys. 123, 064107 (2005)
              N. B. Balabanov, K. A. Peterson, J. Chem. Phys. 125, 074110 (2006)
      Ga-Kr : Obtained from the ccRepo (grant-hill.group.shef.ac.uk/ccrepo) Feb. 2017
              A. K. Wilson, D. E. Woon, K. A. Peterson, T. H. Dunning, Jr., J. Chem. Phys. 110, 7667 (1999)
     Ag, Au : Obtained from the Peterson Research Group Website (tyr0.chem.wsu.edu/~kipeters) Feb. 2017
              K. A. Peterson, C. Puzzarini, Theor. Chem. Acc. 114, 283 (2005)

----- AuxJ basis set information -----
----- AuxC basis set information -----
================================================================================
                                        WARNINGS
                       Please study these warnings very carefully!
================================================================================


WARNING: Post HF methods need fully converged wavefunctions
  ===> : Setting SCFConvForced true
         You can overwrite this default with %scf ConvForced false 


WARNING: MDCI localization with Augmented Hessian Foster-Boys
  ===> : Switching off randomization!

INFO   : the flag for use of the SHARK integral package has been found!

================================================================================
                                       INPUT FILE
================================================================================
NAME = frag21.inp
|  1> ! DLPNO-CCSD(T1) aug-cc-pVTZ DEFGRID3 RIJCOSX def2/J aug-cc-pVQZ/C verytightscf TightPNO LED
|  2> 
|  3> %pal nprocs 16 end
|  4> %maxcore 4000
|  5> %scf maxiter 999 end
|  6> %basis auxj "autoaux" auxc "autoaux" autoauxlmax true end
|  7> %mdci TCutPNO 1e-6 printlevel 3 end
|  8> 
|  9> * xyz 0 1
| 10> O(1)     2.482542995    -1.248988714     0.449488905
| 11> H(1)     2.616828786    -1.798226083    -0.326968465
| 12> H(1)     2.828107886    -0.362220961     0.204648083
| 13> O(2)    -1.753042425     0.416462959     0.356105280
| 14> H(2)    -1.120933301    -0.183098298     0.812596940
| 15> H(2)    -2.593310567    -0.048459739     0.359102074
| 16> *
| 17> 
| 18>                          ****END OF INPUT****
================================================================================

                       ****************************
                       * Single Point Calculation *
                       ****************************

---------------------------------
CARTESIAN COORDINATES (ANGSTROEM)
---------------------------------
  O      2.482543   -1.248989    0.449489
  H      2.616829   -1.798226   -0.326968
  H      2.828108   -0.362221    0.204648
  O     -1.753042    0.416463    0.356105
  H     -1.120933   -0.183098    0.812597
  H     -2.593311   -0.048460    0.359102

----------------------------
CARTESIAN COORDINATES (A.U.)
----------------------------
  NO LB      ZA    FRAG     MASS         X           Y           Z
   0 O     8.0000    1    15.999    4.691326   -2.360247    0.849411
   1 H     1.0000    1     1.008    4.945090   -3.398155   -0.617881
   2 H     1.0000    1     1.008    5.344349   -0.684498    0.386729
   3 O     8.0000    2    15.999   -3.312770    0.787001    0.672941
   4 H     1.0000    2     1.008   -2.118257   -0.346006    1.535586
   5 H     1.0000    2     1.008   -4.900647   -0.091576    0.678605

----------------------------------------------
CARTESIAN COORDINATES OF FRAGMENTS (ANGSTROEM)
----------------------------------------------

 FRAGMENT 1 
  O     2.482543   -1.248989    0.449489
  H     2.616829   -1.798226   -0.326968
  H     2.828108   -0.362221    0.204648

 FRAGMENT 2 
  O    -1.753042    0.416463    0.356105
  H    -1.120933   -0.183098    0.812597
  H    -2.593311   -0.048460    0.359102

--------------------------------
INTERNAL COORDINATES (ANGSTROEM)
--------------------------------
 O      0   0   0     0.000000000000     0.00000000     0.00000000
 H      1   0   0     0.960510493747     0.00000000     0.00000000
 H      1   2   0     0.982710114820   105.39205163     0.00000000
 O      1   2   3     4.552211948782   108.82642770    94.87753579
 H      4   1   2     0.983575254462    33.84975301   112.85504559
 H      4   1   2     0.960319033629   129.56418753    60.66033394

---------------------------
INTERNAL COORDINATES (A.U.)
---------------------------
 O      0   0   0     0.000000000000     0.00000000     0.00000000
 H      1   0   0     1.815101781939     0.00000000     0.00000000
 H      1   2   0     1.857052986045   105.39205163     0.00000000
 O      1   2   3     8.602433886762   108.82642770    94.87753579
 H      4   1   2     1.858687863034    33.84975301   112.85504559
 H      4   1   2     1.814739974751   129.56418753    60.66033394

---------------------
BASIS SET INFORMATION
---------------------
There are 2 groups of distinct atoms

 Group   1 Type O   : 19s6p3d2f contracted to 5s4p3d2f pattern {88111/3111/111/11}
 Group   2 Type H   : 6s3p2d contracted to 4s3p2d pattern {3111/111/11}

Atom   0O    basis set group =>   1
Atom   1H    basis set group =>   2
Atom   2H    basis set group =>   2
Atom   3O    basis set group =>   1
Atom   4H    basis set group =>   2
Atom   5H    basis set group =>   2
---------------------------------
AUXILIARY/J BASIS SET INFORMATION
---------------------------------
There are 2 groups of distinct atoms

 Group   1 Type O   : 16s14p13d7f5g3h2i contracted to 16s14p13d7f5g3h2i pattern {1111111111111111/11111111111111/1111111111111/1111111/11111/111/11}
 Group   2 Type H   : 14s6p5d4f3g contracted to 14s6p5d4f3g pattern {11111111111111/111111/11111/1111/111}

Atom   0O    basis set group =>   1
Atom   1H    basis set group =>   2
Atom   2H    basis set group =>   2
Atom   3O    basis set group =>   1
Atom   4H    basis set group =>   2
Atom   5H    basis set group =>   2
---------------------------------
AUXILIARY/C BASIS SET INFORMATION
---------------------------------
There are 2 groups of distinct atoms

 Group   1 Type O   : 16s14p13d7f5g3h2i contracted to 16s14p13d7f5g3h2i pattern {1111111111111111/11111111111111/1111111111111/1111111/11111/111/11}
 Group   2 Type H   : 14s6p5d4f3g contracted to 14s6p5d4f3g pattern {11111111111111/111111/11111/1111/111}

Atom   0O    basis set group =>   1
Atom   1H    basis set group =>   2
Atom   2H    basis set group =>   2
Atom   3O    basis set group =>   1
Atom   4H    basis set group =>   2
Atom   5H    basis set group =>   2


           ************************************************************
           *        Program running with 16 parallel MPI-processes    *
           *              working on a common directory               *
           ************************************************************
------------------------------------------------------------------------------
                           ORCA GTO INTEGRAL CALCULATION
                           -- RI-GTO INTEGRALS CHOSEN --
------------------------------------------------------------------------------
------------------------------------------------------------------------------
                   ___                                                        
                  /   \      - P O W E R E D   B Y -                         
                 /     \                                                     
                 |  |  |   _    _      __       _____    __    __             
                 |  |  |  | |  | |    /  \     |  _  \  |  |  /  |          
                  \  \/   | |  | |   /    \    | | | |  |  | /  /          
                 / \  \   | |__| |  /  /\  \   | |_| |  |  |/  /          
                |  |  |   |  __  | /  /__\  \  |    /   |      \           
                |  |  |   | |  | | |   __   |  |    \   |  |\   \          
                \     /   | |  | | |  |  |  |  | |\  \  |  | \   \       
                 \___/    |_|  |_| |__|  |__|  |_| \__\ |__|  \__/        
                                                                              
                      - O R C A' S   B I G   F R I E N D -                    
                                      &                                       
                       - I N T E G R A L  F E E D E R -                       
                                                                              
 v1 FN, 2020, v2 2021                                                         
------------------------------------------------------------------------------


Reading SHARK input file frag21.SHARKINP.tmp ... ok
Calculating pre-screening integrals         ... done (  0.0 sec) Dimension = 76
Calculating pre-screening integrals (ORCA)  ... done (  0.0 sec) Dimension = 64
Organizing shell pair data                  ... done (  0.0 sec)
Shell pair information
Total number of shell pairs                 ...      2926
Shell pairs after pre-screening             ...      2549
Total number of primitive shell pairs       ...      3934
Primitive shell pairs kept                  ...      3224
          la=0 lb=0:    614 shell pairs
          la=1 lb=0:    665 shell pairs
          la=1 lb=1:    196 shell pairs
          la=2 lb=0:    457 shell pairs
          la=2 lb=1:    260 shell pairs
          la=2 lb=2:     99 shell pairs
          la=3 lb=0:    123 shell pairs
          la=3 lb=1:     75 shell pairs
          la=3 lb=2:     51 shell pairs
          la=3 lb=3:      9 shell pairs

Calculating one electron integrals          ... done (  0.0 sec)
Calculating RI/J V-Matrix + Cholesky decomp.... done (  0.2 sec)
Calculating RI/C V-Matrix + Cholesky decomp.... done (  0.2 sec)
Calculating Nuclear repulsion               ... done (  0.0 sec) ENN=     29.701758500683 Eh

SHARK setup successfully completed in   0.6 seconds

Maximum memory used throughout the entire GTOINT-calculation: 37.5 MB


           ************************************************************
           *        Program running with 16 parallel MPI-processes    *
           *              working on a common directory               *
           ************************************************************
-------------------------------------------------------------------------------
                                 ORCA SCF
-------------------------------------------------------------------------------

------------
SCF SETTINGS
------------
Hamiltonian:
 Ab initio Hamiltonian  Method          .... Hartree-Fock(GTOs)
 RI-approximation to the Coulomb term is turned on
   Number of AuxJ basis functions       .... 1000
   RIJ-COSX (HFX calculated with COS-X)).... on


General Settings:
 Integral files         IntName         .... frag21
 Hartree-Fock type      HFTyp           .... RHF
 Total Charge           Charge          ....    0
 Multiplicity           Mult            ....    1
 Number of Electrons    NEL             ....   20
 Basis Dimension        Dim             ....  184
 Nuclear Repulsion      ENuc            ....     29.7017585007 Eh

Convergence Acceleration:
 DIIS                   CNVDIIS         .... on
   Start iteration      DIISMaxIt       ....    12
   Startup error        DIISStart       ....  0.200000
   # of expansion vecs  DIISMaxEq       ....     5
   Bias factor          DIISBfac        ....   1.050
   Max. coefficient     DIISMaxC        ....  10.000
 Trust-Rad. Augm. Hess. CNVTRAH         .... auto
   Auto Start mean grad. ratio tolernc. ....  1.125000
   Auto Start start iteration           ....    20
   Auto Start num. interpolation iter.  ....    10
   Max. Number of Micro iterations      ....    24
   Max. Number of Macro iterations      .... Maxiter - #DIIS iter
   Max. Number of back steps            ....     5
   Number of Davidson start vectors     ....     2
   Converg. threshold I  (grad. norm)   ....   2.000e-06
   Converg. threshold II (energy diff.) ....   1.000e-09
   Grad. Scal. Fac. for Micro threshold ....   0.100
   Minimum threshold for Micro iter.    ....   1.000e-02
   NR start threshold (gradient norm)   ....   1.000e-04
   Initial trust radius                 ....   0.400
   Minimum AH scaling param. (alpha)    ....   1.000
   Maximum AH scaling param. (alpha)    .... 1000.000
   Inactive MOs                         .... canonicalized
   Orbital update algorithm             .... Taylor
   White noise on init. David. guess    .... on
   Maximum white noise                  ....   0.010
   Quad. conv. algorithm                .... NR
   Preconditioner                       .... approx. diagonal
 SOSCF                  CNVSOSCF        .... on
   Start iteration      SOSCFMaxIt      ....   150
   Startup grad/error   SOSCFStart      ....  0.003300
 Level Shifting         CNVShift        .... on
   Level shift para.    LevelShift      ....    0.2500
   Turn off err/grad.   ShiftErr        ....    0.0010
 Zerner damping         CNVZerner       .... off
 Static damping         CNVDamp         .... on
   Fraction old density DampFac         ....    0.7000
   Max. Damping (<1)    DampMax         ....    0.9800
   Min. Damping (>=0)   DampMin         ....    0.0000
   Turn off err/grad.   DampErr         ....    0.1000

SCF Procedure:
 Maximum # iterations   MaxIter         ....   999
 SCF integral mode      SCFMode         .... Direct
   Integral package                     .... SHARK and LIBINT hybrid scheme
 Reset frequency        DirectResetFreq ....    20
 Integral Threshold     Thresh          ....  1.000e-12 Eh
 Primitive CutOff       TCut            ....  1.000e-14 Eh

Convergence Tolerance:
 Convergence Check Mode ConvCheckMode   .... Total+1el-Energy
 Convergence forced     ConvForced      .... 1
 Energy Change          TolE            ....  1.000e-09 Eh
 1-El. energy change                    ....  1.000e-06 Eh
 Orbital Gradient       TolG            ....  2.000e-06
 Orbital Rotation angle TolX            ....  2.000e-06
 DIIS Error             TolErr          ....  1.000e-08


Diagonalization of the overlap matrix:
Smallest eigenvalue                        ... 3.491e-04
Time for diagonalization                   ...    0.005 sec
Threshold for overlap eigenvalues          ... 1.000e-08
Number of eigenvalues below threshold      ... 0
Time for construction of square roots      ...    0.004 sec
Total time needed                          ...    0.010 sec

Time for model grid setup =    0.046 sec

------------------------------
INITIAL GUESS: MODEL POTENTIAL
------------------------------
Loading Hartree-Fock densities                     ... done
Calculating cut-offs                               ... done
Initializing the effective Hamiltonian             ... done
Setting up the integral package (SHARK)            ... done
Starting the Coulomb interaction                   ... done (   0.0 sec)
Reading the grid                                   ... done
Mapping shells                                     ... done
Starting the XC term evaluation                    ... done (   0.0 sec)
Transforming the Hamiltonian                       ... done (   0.0 sec)
Diagonalizing the Hamiltonian                      ... done (   0.0 sec)
Back transforming the eigenvectors                 ... done (   0.0 sec)
Now organizing SCF variables                       ... done
                      ------------------
                      INITIAL GUESS DONE (   0.1 sec)
                      ------------------
--------------------
COSX GRID GENERATION
--------------------

GRIDX 1
-------
General Integration Accuracy     IntAcc      ... 4.020
Radial Grid Type                 RadialGrid  ... OptM3 with GC (2021)
Angular Grid (max. ang.)         AngularGrid ... 2 (Lebedev-110)
Angular grid pruning method      GridPruning ... 4 (adaptive)
Weight generation scheme         WeightScheme... Becke
Basis function cutoff            BFCut       ... 1.0000e-12
Integration weight cutoff        WCut        ... 1.0000e-14
Angular grids for H and He will be reduced by one unit
Partially contracted basis set               ... on
Rotationally invariant grid construction     ... off

Total number of grid points                  ...     8266
Total number of batches                      ...      132
Average number of points per batch           ...       62
Average number of grid points per atom       ...     1378
UseSFitting                                  ... on

GRIDX 2
-------
General Integration Accuracy     IntAcc      ... 4.338
Radial Grid Type                 RadialGrid  ... OptM3 with GC (2021)
Angular Grid (max. ang.)         AngularGrid ... 3 (Lebedev-194)
Angular grid pruning method      GridPruning ... 4 (adaptive)
Weight generation scheme         WeightScheme... Becke
Basis function cutoff            BFCut       ... 1.0000e-12
Integration weight cutoff        WCut        ... 1.0000e-14
Angular grids for H and He will be reduced by one unit
Partially contracted basis set               ... on
Rotationally invariant grid construction     ... off

Total number of grid points                  ...    18939
Total number of batches                      ...      299
Average number of points per batch           ...       63
Average number of grid points per atom       ...     3156
UseSFitting                                  ... on

GRIDX 3
-------
General Integration Accuracy     IntAcc      ... 4.871
Radial Grid Type                 RadialGrid  ... OptM3 with GC (2021)
Angular Grid (max. ang.)         AngularGrid ... 4 (Lebedev-302)
Angular grid pruning method      GridPruning ... 4 (adaptive)
Weight generation scheme         WeightScheme... Becke
Basis function cutoff            BFCut       ... 1.0000e-12
Integration weight cutoff        WCut        ... 1.0000e-14
Angular grids for H and He will be reduced by one unit
Partially contracted basis set               ... on
Rotationally invariant grid construction     ... off

Total number of grid points                  ...    36983
Total number of batches                      ...      581
Average number of points per batch           ...       63
Average number of grid points per atom       ...     6164
UseSFitting                                  ... on

Time for X-Grid setup             =    0.261 sec

 re-compute Schwartz prescreening matrix in partially contracted basis (1) ...done (   0.051 sec)
--------------
SCF ITERATIONS
--------------
ITER       Energy         Delta-E        Max-DP      RMS-DP      [F,P]     Damp
               ***  Starting incremental Fock matrix formation  ***
  0   -151.9194460608   0.000000000000 0.02733839  0.00071266  0.3800477 0.7000
  1   -151.9995073915  -0.080061330701 0.01785291  0.00048082  0.2225798 0.7000
                               ***Turning on DIIS***
  2   -152.0408793016  -0.041371910087 0.01148311  0.00026401  0.1186373 0.7000
  3   -152.3508078881  -0.309928586514 0.02958450  0.00048773  0.0849553 0.0000
  4   -152.0704151653   0.280392722788 0.00474681  0.00009140  0.0131426 0.0000
                      *** Initiating the SOSCF procedure ***
                           *** Shutting down DIIS ***
                      *** Re-Reading the Fockian *** 
                      *** Removing any level shift *** 
ITER       Energy         Delta-E        Max-DP      RMS-DP   
  5   -152.1187160326  -0.048300867214 0.00144952  0.00003668
               *** Restarting incremental Fock matrix formation ***
  6   -152.1194080395  -0.000692006988 0.00414853  0.00006406
  7   -152.1194193643  -0.000011324778 0.00137733  0.00001788
  8   -152.1194211168  -0.000001752427 0.00023111  0.00000476
  9   -152.1194217398  -0.000000623069 0.00010043  0.00000155
 10   -152.1194218995  -0.000000159683 0.00001572  0.00000024
 11   -152.1194218963   0.000000003243 0.00000310  0.00000008
 12   -152.1194218928   0.000000003417 0.00000140  0.00000002
                 **** Energy Check signals convergence ****
              ***Rediagonalizing the Fockian in SOSCF/NRSCF***

               *****************************************************
               *                     SUCCESS                       *
               *           SCF CONVERGED AFTER  13 CYCLES          *
               *****************************************************

Old exchange energy                            =    -17.856856713 Eh
New exchange energy                            =    -17.857026711 Eh
Exchange energy change after final integration =     -0.000169997 Eh
Total energy after final integration           =   -152.119591889 Eh
Final COS-X integration done in                =     0.391 sec

----------------
TOTAL SCF ENERGY
----------------

Total Energy       :         -152.11959189 Eh           -4139.38454 eV

Components:
Nuclear Repulsion  :           29.70175850 Eh             808.22594 eV
Electronic Energy  :         -181.82135039 Eh           -4947.61048 eV
One Electron Energy:         -268.79930063 Eh           -7314.40083 eV
Two Electron Energy:           86.97795023 Eh            2366.79035 eV
Max COSX asymmetry :            0.00000063 Eh               0.00002 eV

Virial components:
Potential Energy   :         -303.92318171 Eh           -8270.17022 eV
Kinetic Energy     :          151.80358982 Eh            4130.78568 eV
Virial Ratio       :            2.00208165


---------------
SCF CONVERGENCE
---------------

  Last Energy change         ...    8.1457e-10  Tolerance :   1.0000e-09
  Last MAX-Density change    ...    2.2204e-15  Tolerance :   1.0000e-08
  Last RMS-Density change    ...    1.7325e-17  Tolerance :   1.0000e-09

             **** THE GBW FILE WAS UPDATED (frag21.gbw) ****
             **** DENSITY frag21.scfp WAS UPDATED ****
             **** ENERGY FILE WAS UPDATED (frag21.en.tmp) ****
             **** THE GBW FILE WAS UPDATED (frag21.gbw) ****
             **** DENSITY frag21.scfp WAS UPDATED ****
             **** ENERGY FILE WAS UPDATED (frag21.en.tmp) ****
----------------
ORBITAL ENERGIES
----------------

  NO   OCC          E(Eh)            E(eV) 
   0   2.0000     -20.572808      -559.8146 
   1   2.0000     -20.563390      -559.5583 
   2   2.0000      -1.349351       -36.7177 
   3   2.0000      -1.339746       -36.4563 
   4   2.0000      -0.715315       -19.4647 
   5   2.0000      -0.705584       -19.1999 
   6   2.0000      -0.584562       -15.9067 
   7   2.0000      -0.574863       -15.6428 
   8   2.0000      -0.512753       -13.9527 
   9   2.0000      -0.503158       -13.6916 
  10   0.0000       0.026461         0.7201 
  11   0.0000       0.039895         1.0856 
  12   0.0000       0.048108         1.3091 
  13   0.0000       0.065262         1.7759 
  14   0.0000       0.132871         3.6156 
  15   0.0000       0.142325         3.8729 
  16   0.0000       0.159475         4.3395 
  17   0.0000       0.173619         4.7244 
  18   0.0000       0.177144         4.8203 
  19   0.0000       0.179644         4.8884 
  20   0.0000       0.194037         5.2800 
  21   0.0000       0.206925         5.6307 
  22   0.0000       0.222690         6.0597 
  23   0.0000       0.227282         6.1847 
  24   0.0000       0.251097         6.8327 
  25   0.0000       0.260049         7.0763 
  26   0.0000       0.279803         7.6138 
  27   0.0000       0.291269         7.9258 
  28   0.0000       0.312868         8.5136 
  29   0.0000       0.319741         8.7006 
  30   0.0000       0.343482         9.3466 
  31   0.0000       0.370921        10.0933 
  32   0.0000       0.387815        10.5530 
  33   0.0000       0.407676        11.0934 
  34   0.0000       0.439106        11.9487 
  35   0.0000       0.455323        12.3900 
  36   0.0000       0.465117        12.6565 
  37   0.0000       0.497303        13.5323 
  38   0.0000       0.597940        16.2708 
  39   0.0000       0.613380        16.6909 
  40   0.0000       0.650412        17.6986 
  41   0.0000       0.683688        18.6041 
  42   0.0000       0.711638        19.3647 
  43   0.0000       0.719533        19.5795 
  44   0.0000       0.721123        19.6227 
  45   0.0000       0.735826        20.0228 
  46   0.0000       0.750107        20.4114 
  47   0.0000       0.768850        20.9215 
  48   0.0000       0.816167        22.2090 
  49   0.0000       0.834178        22.6991 
  50   0.0000       0.840654        22.8754 
  51   0.0000       0.854679        23.2570 
  52   0.0000       0.883959        24.0537 
  53   0.0000       0.908161        24.7123 
  54   0.0000       0.911746        24.8099 
  55   0.0000       0.914345        24.8806 
  56   0.0000       0.919339        25.0165 
  57   0.0000       0.926265        25.2050 
  58   0.0000       0.929460        25.2919 
  59   0.0000       0.945236        25.7212 
  60   0.0000       0.961023        26.1508 
  61   0.0000       0.968467        26.3533 
  62   0.0000       0.989427        26.9237 
  63   0.0000       1.009434        27.4681 
  64   0.0000       1.037452        28.2305 
  65   0.0000       1.041543        28.3418 
  66   0.0000       1.051282        28.6068 
  67   0.0000       1.075785        29.2736 
  68   0.0000       1.099097        29.9080 
  69   0.0000       1.104431        30.0531 
  70   0.0000       1.131041        30.7772 
  71   0.0000       1.140876        31.0448 
  72   0.0000       1.168151        31.7870 
  73   0.0000       1.192322        32.4447 
  74   0.0000       1.207821        32.8665 
  75   0.0000       1.236842        33.6562 
  76   0.0000       1.264288        34.4030 
  77   0.0000       1.289852        35.0987 
  78   0.0000       1.511127        41.1199 
  79   0.0000       1.527724        41.5715 
  80   0.0000       1.547880        42.1200 
  81   0.0000       1.582664        43.0665 
  82   0.0000       1.588877        43.2355 
  83   0.0000       1.590228        43.2723 
  84   0.0000       1.796721        48.8913 
  85   0.0000       1.801468        49.0204 
  86   0.0000       1.819855        49.5208 
  87   0.0000       1.847058        50.2610 
  88   0.0000       1.972565        53.6762 
  89   0.0000       1.988447        54.1084 
  90   0.0000       2.108274        57.3691 
  91   0.0000       2.113713        57.5171 
  92   0.0000       2.255844        61.3846 
  93   0.0000       2.283086        62.1259 
  94   0.0000       2.313095        62.9425 
  95   0.0000       2.320504        63.1441 
  96   0.0000       2.336937        63.5913 
  97   0.0000       2.343344        63.7656 
  98   0.0000       2.413245        65.6677 
  99   0.0000       2.422746        65.9263 
 100   0.0000       2.426240        66.0213 
 101   0.0000       2.438959        66.3674 
 102   0.0000       2.448311        66.6219 
 103   0.0000       2.455715        66.8234 
 104   0.0000       2.485021        67.6209 
 105   0.0000       2.522511        68.6410 
 106   0.0000       2.685637        73.0799 
 107   0.0000       2.707875        73.6850 
 108   0.0000       2.712046        73.7985 
 109   0.0000       2.719279        73.9953 
 110   0.0000       2.758010        75.0493 
 111   0.0000       2.776689        75.5575 
 112   0.0000       2.821149        76.7674 
 113   0.0000       2.846384        77.4541 
 114   0.0000       2.882290        78.4311 
 115   0.0000       2.902263        78.9746 
 116   0.0000       3.626506        98.6823 
 117   0.0000       3.640242        99.0560 
 118   0.0000       3.761026       102.3427 
 119   0.0000       3.766138       102.4818 
 120   0.0000       4.001769       108.8937 
 121   0.0000       4.012350       109.1816 
 122   0.0000       4.081703       111.0688 
 123   0.0000       4.105443       111.7148 
 124   0.0000       4.169009       113.4445 
 125   0.0000       4.183162       113.8296 
 126   0.0000       4.225188       114.9732 
 127   0.0000       4.242301       115.4389 
 128   0.0000       4.294577       116.8614 
 129   0.0000       4.306117       117.1754 
 130   0.0000       4.372985       118.9950 
 131   0.0000       4.380307       119.1942 
 132   0.0000       4.388639       119.4209 
 133   0.0000       4.395458       119.6065 
 134   0.0000       4.401217       119.7632 
 135   0.0000       4.405774       119.8872 
 136   0.0000       4.497711       122.3889 
 137   0.0000       4.510257       122.7303 
 138   0.0000       4.705970       128.0560 
 139   0.0000       4.730628       128.7269 
 140   0.0000       4.800769       130.6356 
 141   0.0000       4.811104       130.9168 
 142   0.0000       5.103599       138.8760 
 143   0.0000       5.114429       139.1707 
 144   0.0000       5.123893       139.4282 
 145   0.0000       5.127699       139.5318 
 146   0.0000       5.243466       142.6820 
 147   0.0000       5.256893       143.0473 
 148   0.0000       5.287489       143.8799 
 149   0.0000       5.296119       144.1147 
 150   0.0000       5.482685       149.1914 
 151   0.0000       5.490388       149.4010 
 152   0.0000       5.665196       154.1578 
 153   0.0000       5.672298       154.3511 
 154   0.0000       6.153206       167.4372 
 155   0.0000       6.161518       167.6634 
 156   0.0000       6.519839       177.4138 
 157   0.0000       6.536867       177.8772 
 158   0.0000       6.703573       182.4135 
 159   0.0000       6.716799       182.7734 
 160   0.0000       6.860969       186.6965 
 161   0.0000       6.869104       186.9178 
 162   0.0000       7.123791       193.8482 
 163   0.0000       7.126552       193.9234 
 164   0.0000       7.237285       196.9365 
 165   0.0000       7.252599       197.3533 
 166   0.0000       7.288595       198.3328 
 167   0.0000       7.291435       198.4100 
 168   0.0000       7.299342       198.6252 
 169   0.0000       7.305140       198.7830 
 170   0.0000       7.325648       199.3410 
 171   0.0000       7.332340       199.5231 
 172   0.0000       7.358195       200.2267 
 173   0.0000       7.370245       200.5546 
 174   0.0000       7.508392       204.3137 
 175   0.0000       7.515388       204.5041 
 176   0.0000       7.867209       214.0777 
 177   0.0000       7.879038       214.3995 
 178   0.0000       7.901424       215.0087 
 179   0.0000       7.913482       215.3368 
 180   0.0000       8.729834       237.5508 
 181   0.0000       8.738917       237.7980 
 182   0.0000      15.419350       419.5818 
 183   0.0000      15.447557       420.3494 

--------------------
FRAGMENT INFORMATION
--------------------
Fragment  1:    0   1   2 
Fragment  2:    3   4   5 


                    ********************************
                    * MULLIKEN POPULATION ANALYSIS *
                    ********************************

-------------------------
MULLIKEN FRAGMENT CHARGES
-------------------------
 Fragment   0 :   0.000610
 Fragment   1 :  -0.000610
Sum of fragment charges:   -0.0000000

---------------------------------
MULLIKEN FRAGMENT OVERLAP CHARGES
---------------------------------
                  0          1    
      0      11.123648   0.000256
      1       0.000256  11.111372

-----------------------
MULLIKEN ATOMIC CHARGES
-----------------------
   0 O :   -0.470739
   1 H :    0.222643
   2 H :    0.248705
   3 O :   -0.470314
   4 H :    0.250121
   5 H :    0.219583
Sum of atomic charges:   -0.0000000

--------------------------------
MULLIKEN REDUCED ORBITAL CHARGES
--------------------------------
  0 O s       :     3.877700  s :     3.877700
      pz      :     1.489990  p :     4.573823
      px      :     1.805170
      py      :     1.278663
      dz2     :     0.005219  d :     0.017849
      dxz     :     0.002326
      dyz     :     0.006713
      dx2y2   :     0.000895
      dxy     :     0.002696
      f0      :     0.000087  f :     0.001367
      f+1     :     0.000106
      f-1     :     0.000178
      f+2     :     0.000170
      f-2     :     0.000198
      f+3     :     0.000405
      f-3     :     0.000223
  1 H s       :     0.657164  s :     0.657164
      pz      :     0.023884  p :     0.101002
      px      :     0.047418
      py      :     0.029699
      dz2     :     0.006337  d :     0.019191
      dxz     :     0.005721
      dyz     :     0.000824
      dx2y2   :     0.002278
      dxy     :     0.004030
  2 H s       :     0.642265  s :     0.642265
      pz      :     0.030027  p :     0.092002
      px      :     0.041914
      py      :     0.020061
      dz2     :     0.000466  d :     0.017028
      dxz     :     0.000564
      dyz     :     0.006523
      dx2y2   :     0.003891
      dxy     :     0.005584
  3 O s       :     3.877156  s :     3.877156
      pz      :     1.766481  p :     4.573727
      px      :     1.258582
      py      :     1.548664
      dz2     :     0.001897  d :     0.018075
      dxz     :     0.001366
      dyz     :     0.003888
      dx2y2   :     0.001144
      dxy     :     0.009779
      f0      :     0.000304  f :     0.001356
      f+1     :     0.000292
      f-1     :     0.000146
      f+2     :     0.000043
      f-2     :     0.000380
      f+3     :     0.000026
      f-3     :     0.000165
  4 H s       :     0.639110  s :     0.639110
      pz      :     0.039779  p :     0.092348
      px      :     0.026885
      py      :     0.025683
      dz2     :     0.005250  d :     0.018420
      dxz     :     0.002861
      dyz     :     0.002113
      dx2y2   :     0.005644
      dxy     :     0.002552
  5 H s       :     0.660727  s :     0.660727
      pz      :     0.046089  p :     0.100850
      px      :     0.023406
      py      :     0.031355
      dz2     :     0.000241  d :     0.018840
      dxz     :     0.008044
      dyz     :     0.001779
      dx2y2   :     0.004656
      dxy     :     0.004120


                     *******************************
                     * LOEWDIN POPULATION ANALYSIS *
                     *******************************

------------------------
LOEWDIN FRAGMENT CHARGES
------------------------
 Fragment   0 :   0.001535
 Fragment   1 :  -0.001535

----------------------------
LOEWDIN FRAGMENT BOND ORDERS
----------------------------
                  0          1    
      0      18.221740   0.007854
      1       0.007854  18.226219

----------------------
LOEWDIN ATOMIC CHARGES
----------------------
   0 O :    1.000375
   1 H :   -0.523158
   2 H :   -0.475683
   3 O :    0.998791
   4 H :   -0.475614
   5 H :   -0.524712

-------------------------------
LOEWDIN REDUCED ORBITAL CHARGES
-------------------------------
  0 O s       :     3.017956  s :     3.017956
      pz      :     1.314266  p :     3.896961
      px      :     1.408435
      py      :     1.174260
      dz2     :     0.014681  d :     0.070184
      dxz     :     0.001066
      dyz     :     0.029660
      dx2y2   :     0.014225
      dxy     :     0.010552
      f0      :     0.001543  f :     0.014525
      f+1     :     0.000558
      f-1     :     0.005196
      f+2     :     0.001963
      f-2     :     0.001752
      f+3     :     0.002858
      f-3     :     0.000655
  1 H s       :     0.592721  s :     0.592721
      pz      :     0.230823  p :     0.561106
      px      :     0.166744
      py      :     0.163539
      dz2     :     0.117834  d :     0.369330
      dxz     :     0.080037
      dyz     :     0.083266
      dx2y2   :     0.045802
      dxy     :     0.042392
  2 H s       :     0.582766  s :     0.582766
      pz      :     0.149715  p :     0.532372
      px      :     0.169044
      py      :     0.213613
      dz2     :     0.032430  d :     0.360544
      dxz     :     0.019932
      dyz     :     0.110124
      dx2y2   :     0.098296
      dxy     :     0.099762
  3 O s       :     3.018739  s :     3.018739
      pz      :     1.391308  p :     3.897671
      px      :     1.168225
      py      :     1.338138
      dz2     :     0.007956  d :     0.070282
      dxz     :     0.009475
      dyz     :     0.006538
      dx2y2   :     0.010309
      dxy     :     0.036004
      f0      :     0.001212  f :     0.014517
      f+1     :     0.001910
      f-1     :     0.000762
      f+2     :     0.000088
      f-2     :     0.003798
      f+3     :     0.001505
      f-3     :     0.005243
  4 H s       :     0.581612  s :     0.581612
      pz      :     0.177119  p :     0.533162
      px      :     0.163986
      py      :     0.192057
      dz2     :     0.066229  d :     0.360840
      dxz     :     0.062258
      dyz     :     0.062325
      dx2y2   :     0.098345
      dxy     :     0.071684
  5 H s       :     0.593518  s :     0.593518
      pz      :     0.162160  p :     0.562161
      px      :     0.213844
      py      :     0.186157
      dz2     :     0.031432  d :     0.369033
      dxz     :     0.097782
      dyz     :     0.026272
      dx2y2   :     0.107128
      dxy     :     0.106419


                      *****************************
                      * MAYER POPULATION ANALYSIS *
                      *****************************

  NA   - Mulliken gross atomic population
  ZA   - Total nuclear charge
  QA   - Mulliken gross atomic charge
  VA   - Mayer's total valence
  BVA  - Mayer's bonded valence
  FA   - Mayer's free valence

  ATOM       NA         ZA         QA         VA         BVA        FA
  0 O      8.4707     8.0000    -0.4707     1.9740     1.9740     0.0000
  1 H      0.7774     1.0000     0.2226     1.0353     1.0353    -0.0000
  2 H      0.7513     1.0000     0.2487     1.0089     1.0089     0.0000
  3 O      8.4703     8.0000    -0.4703     1.9710     1.9710    -0.0000
  4 H      0.7499     1.0000     0.2501     1.0093     1.0093    -0.0000
  5 H      0.7804     1.0000     0.2196     1.0380     1.0380     0.0000

  Mayer bond orders larger than 0.100000
B(  0-O ,  1-H ) :   1.0003 B(  0-O ,  2-H ) :   0.9733 B(  3-O ,  4-H ) :   0.9710 
B(  3-O ,  5-H ) :   1.0008 

-------
TIMINGS
-------

Total SCF time: 0 days 0 hours 0 min 3 sec 

Total time                  ....       3.655 sec
Sum of individual times     ....       5.822 sec  (159.3%)

Fock matrix formation       ....       5.315 sec  (145.4%)
  Split-RI-J                ....       0.770 sec  ( 14.5% of F)
  Chain of spheres X        ....       2.144 sec  ( 40.3% of F)
Diagonalization             ....       0.045 sec  (  1.2%)
Density matrix formation    ....       0.006 sec  (  0.2%)
Population analysis         ....       0.010 sec  (  0.3%)
Initial guess               ....       0.050 sec  (  1.4%)
Orbital Transformation      ....       0.000 sec  (  0.0%)
Orbital Orthonormalization  ....       0.000 sec  (  0.0%)
DIIS solution               ....       0.043 sec  (  1.2%)
SOSCF solution              ....       0.046 sec  (  1.3%)

Maximum memory used throughout the entire SCF-calculation: 73.1 MB


           ************************************************************
           *        Program running with 16 parallel MPI-processes    *
           *              working on a common directory               *
           ************************************************************


--------------------------------------------------------------------------------
                             ORCA-MATRIX DRIVEN CI
--------------------------------------------------------------------------------


Wavefunction type
-----------------
Correlation treatment                      ...      CCSD     
Single excitations                         ... ON
Orbital optimization                       ... OFF
Calculation of Z vector                    ... OFF
Calculation of Brueckner orbitals          ... OFF
Perturbative triple excitations            ... ON
Calculation of F12 correction              ... OFF
Frozen core treatment                      ... chemical core (4 el)
Reference Wavefunction                     ... RHF
  Internal Orbitals:     2 ...    9 (  8 MO's/ 16 electrons)
  Virtual  Orbitals:    10 ...  183 (174 MO's              )
Number of AO's                             ...    184
Number of electrons                        ...     20
Number of correlated electrons             ...     16

Algorithmic settings
--------------------
Integral transformation                    ... All integrals via the RI transformation
K(C) Formation                             ... RI-DLPNO
   PNO-Integral Storage                    ... ON DISK
   PNO occupation number cut-off           ... 1.000e-06
   Singles PNO occupation number cut-off   ... 3.000e-08
   PNO Mulliken prescreening cut-off       ... 1.000e-03
   Domain cut-off (Mulliken population)    ... 1.000e-03
   PNO Normalization                       ...    1
Maximum number of iterations               ...        50
Convergence tolerance (max. residuum)      ... 1.000e-06
Level shift for amplitude update           ... 2.000e-01
Maximum number of DIIS vectors             ...         7
DIIS turned on at iteration                ...         0
Damping before turning on DIIS             ...     0.500
Damping after turning on DIIS              ...     0.000
Pair specific amplitude update             ... OFF
Natural orbital iterations                 ... OFF
Perturbative natural orbital generation    ... OFF
Printlevel                                 ... 3

Singles Fock matrix elements calculated using PNOs.

Memory handling:
----------------
Maximum memory for working arrays          ...   4000 MB
Data storage in matrix containers          ... UNCOMPRESSED
Data type for integral storage             ... DOUBLE
In-Core Storage of quantities:
   Amplitudes+Sigma Vector      ... NO
   J+K operators                ... NO
   DIIS vectors                 ... NO
   3-external integrals         ... NO
   4-external integrals         ... NO

Localization treatment:
-----------------------
Localization option                        ...    6
Localization threshhold                    ... -1.0e+00
Using relative localization threshhold     ... 1.0e-08
Neglect threshold for strong pairs         ... 1.000e-05 Eh
Prescreening threshold for very weak pairs ... 1.000e-07 Eh

Initializing the integral package          ... done
Localizing the valence orbitals
Localizing the valence orbitals
------------------------------------------------------------------------------
                           ORCA ORBITAL LOCALIZATION
------------------------------------------------------------------------------

Input orbitals are from                  ... frag21.gbw
Output orbitals are to                   ... frag21.loc
Max. number of iterations                ... 128
Localizations seeded randomly            ... off
Convergence tolerance                    ... 2.000e-07
Using relative localization threshhold   ... 1.000e-08
Threshold for strong local MOs           ... 9.500e-01
Threshold for bond MOs                   ... 8.500e-01
Operator                                 ... 0
Orbital range for localization           ... 2 to 9
Localization criterion                   ... FOSTER-BOYS (AUGMENTED HESSIAN)
Doing the dipole integrals     ... o.k.
Initial value of the localization sum :   163.110591
ITERATION   0 : L=  166.6872145138 DL=  3.58e+00 (AVERGE_DL)=    0.3574025191 
ITERATION   1 : L=  167.2944029043 DL=  6.07e-01 (AVERGE_DL)=    0.1472592940 
ITERATION   2 : L=  167.4315284438 DL=  1.37e-01 (AVERGE_DL)=    0.0699810024 
ITERATION   3 : L=  167.4408898159 DL=  9.36e-03 (AVERGE_DL)=    0.0182848221 
ITERATION   4 : L=  167.4419738824 DL=  1.08e-03 (AVERGE_DL)=    0.0062222714 
ITERATION   5 : L=  167.4420960126 DL=  1.22e-04 (AVERGE_DL)=    0.0020884899 
ITERATION   6 : L=  167.4421087416 DL=  1.27e-05 (AVERGE_DL)=    0.0006742458 
ITERATION   7 : L=  167.4421100082 DL=  1.27e-06 (AVERGE_DL)=    0.0002126869 
ITERATION   8 : L=  167.4421101300 DL=  1.22e-07 (AVERGE_DL)=    0.0000659661 
LOCALIZATION SUM CONVERGED

------------------------------------------------------
AUGMENTED HESSIAN OPTIMIZATION OF FOSTER-BOYS ORBITALS
------------------------------------------------------

Spin operator:           0
Orbital window:          2 to 9
Number of iterations:    128
Gradient tolerance:      2.000e-07
Number of pairs:         28
Davidson threshold:      2000
Diagonalization method:  LAPACK
Iter:    0   L: 167.4421101300   Grad. norm: 8.571128e-04
   *** Likely close to a maximum now. ***
       Augmented Hessian eigenvalues:  2.77e-08 -1.28e+00 -1.29e+00 -3.20e+00 ... 
Iter:    1   L: 167.4421101438   Grad. norm: 8.951057e-09
LOCALIZATION HAS CONVERGED.

Eigenvalues of the Hessian:
  0 -1.278e+00
  1 -1.288e+00
  2 -3.201e+00
  3 -3.211e+00
  4 -4.685e+00
  5 -4.694e+00
  6 -5.333e+00
  7 -5.344e+00
  8 -7.195e+00
  9 -7.205e+00
    ...


--------------------------------------------------------------------------------
                    LOCALIZED MOLECULAR ORBITAL COMPOSITIONS
--------------------------------------------------------------------------------

The Mulliken populations for each LMO on each atom are computed
The LMO`s will be ordered according to atom index and type
  (A) Strongly localized MO`s have populations of >=0.950 on one atom
  (B) Two center bond orbitals have populations of >=0.850 on two atoms
  (C) Other MO`s are considered to be `delocalized`

FOUND  -   4 strongly local MO`s
       -   4 two center bond MO`s
       -   0 significantly delocalized MO`s

Rather strongly localized orbitals:
MO   5:   3O  -   1.003062
MO   4:   3O  -   1.001566
MO   3:   0O  -   1.004229
MO   2:   0O  -   0.997636
Bond-like localized orbitals:
MO   9:   5H  -   0.385412  and   3O  -   0.608624
MO   8:   4H  -   0.372316  and   3O  -   0.622814
MO   7:   2H  -   0.374011  and   0O  -   0.621800
MO   6:   1H  -   0.384003  and   0O  -   0.612607
Localized MO's were stored in: frag21.loc

Localizing the core orbitals
------------------------------------------------------------------------------
                           ORCA ORBITAL LOCALIZATION
------------------------------------------------------------------------------

Input orbitals are from                  ... frag21.loc
Output orbitals are to                   ... frag21.loc
Max. number of iterations                ... 128
Localizations seeded randomly            ... off
Convergence tolerance                    ... 2.000e-07
Using relative localization threshhold   ... 1.000e-08
Threshold for strong local MOs           ... 9.500e-01
Threshold for bond MOs                   ... 8.500e-01
Operator                                 ... 0
Orbital range for localization           ... 0 to 1
Localization criterion                   ... FOSTER-BOYS (AUGMENTED HESSIAN)
Doing the dipole integrals     ... o.k.
Initial value of the localization sum :    40.347903
ITERATION   0 : L=   40.3479034816 DL=  0.00e+00 (AVERGE_DL)=    0.0000000000 
LOCALIZATION SUM CONVERGED

------------------------------------------------------
AUGMENTED HESSIAN OPTIMIZATION OF FOSTER-BOYS ORBITALS
------------------------------------------------------

Spin operator:           0
Orbital window:          0 to 1
Number of iterations:    128
Gradient tolerance:      2.000e-07
Number of pairs:         1
Davidson threshold:      2000
Diagonalization method:  LAPACK
Iter:    0   L: 40.3479034816   Grad. norm: 3.065475e-04
   *** Likely close to a maximum now. ***
       Augmented Hessian eigenvalues:  3.17e-10 -2.96e+02
Iter:    1   L: 40.3479034818   Grad. norm: 1.397244e-15
LOCALIZATION HAS CONVERGED.

Eigenvalues of the Hessian:
  0 -2.960e+02


--------------------------------------------------------------------------------
                    LOCALIZED MOLECULAR ORBITAL COMPOSITIONS
--------------------------------------------------------------------------------

The Mulliken populations for each LMO on each atom are computed
The LMO`s will be ordered according to atom index and type
  (A) Strongly localized MO`s have populations of >=0.950 on one atom
  (B) Two center bond orbitals have populations of >=0.850 on two atoms
  (C) Other MO`s are considered to be `delocalized`

FOUND  -   2 strongly local MO`s
       -   0 two center bond MO`s
       -   0 significantly delocalized MO`s

Rather strongly localized orbitals:
MO   1:   3O  -   0.999254
MO   0:   0O  -   0.999208
Localized MO's were stored in: frag21.loc

Warning: reference  - re-canonicalizations have been set to INT 1 VIRT 1
Warning: internal orbitals are localized - no re-canonicalization of internal orbitals
Warning: UsePNO is turned on - no re-canonicalization of internal and virtual orbitals

--------------------------
CLOSED-SHELL FOCK OPERATOR
--------------------------

Restoring SHARK [2] ... ok
Entering RIJCOSX section for the Fock matrix
Trying to retrieve the full J-matrix              ... done
Updating the Fock matrix                          ... done
Making the frozen core Coulomb matrix             ... SHARKdone
Retrieving the full K-matrix                      ... done
Calculating the frozen core K-matrix              ... done
Updating the Fock matrix                          ... done
Time needed for Fock operator              ...            0.458 sec
Reference energy                           ...   -152.119591895

--------------
DLPNO SETTINGS (2015 fully linear scaling implementation)
--------------

TCutMKN:           1.000e-03
TCutPAO:           1.000e-03
TCutPNO:           1.000e-06
TCutPNOSingles:    3.000e-08
TCutEN:            9.700e-01
TCutPAOExt:        1.000e-01
TCutPairs:         1.000e-05
TCutPre:           1.000e-07
TCutOSV:           1.000e-06
TCutDOij:          1.000e-05
TCutDO:            5.000e-03
TCutC:             1.000e-04
TCutCPAO:          1.000e-03
TCutCMO:           1.000e-03
TScaleDOMP2PreScr: 2.000e+00
TScaleMKNMP2PreScr:1.000e+01
TScalePNOMP2PreScr:1.000e+00
PAO overlap thresh 1.000e-08
Using PNOs for Singles Fock computation
Use new domains
Use fully linear algorithm
TCutTNO:           1.000e-09
TCutMP2Pairs:      1.000e-06
TCutDOStrong:      1.000e-02
TCutDOWeak:        2.000e-02
TCutMKNStrong:     1.000e-02
TCutMKNWeak:       1.000e-01
NTCutTNO:          1

--------------------------
Mulliken population of the LMOs            ... ok
Performing proximity check                 ... 
 found 2 problematic atoms
   => In all likelyhood your results will be entirely fine!
   => In case you don't want to trust it, decrease TCutMKN to below 0.00020776.
   => but note that this is probably not necessary but will increase execution time
Calculating differential overlap integrals ... ok

--------------------------
ELECTRON PAIR PRESCREENING
--------------------------

Dipole-based pair screening          .... used

   TCutDOij = 1.000000e-05
   TCutPre  = 1.000000e-07
   .... Finished loop over pairs
Total time spent in the prescreening                  ...     0.000 sec
Time for pair-prescreening                            ...     0.000 sec
Time for pairlist organization                        ...     0.000 sec
Number of pairs skipped by pre-screening              ... 0
sum of pair energies estimated for screened out pairs ...       0.000000000000 Eh
Thresholds for map construction and integral transformation for crude MP2:
   TCutMKN                    ...     1.0e-02
   TCutDO                     ...     1.0e-02
   TCutPairs                  ...     1.0e-05
   TCutPNO_CrudeMP2           ...     1.0e-06
   TCutPNOSingles_CrudeMP2    ...     3.0e-08
--------------------------------
LOCAL RI TRANSFORMATION (IAVPAO)
--------------------------------

Orbital window:       2 to 9
Number of PAOs:     184
Basis functions:    184 (64 shells)
Aux. functions:    1000 (248 shells)
Use SHARK:           on

Processing maps (0.0 sec)
Average map sizes:
   Aux shells -> MOs               8.0
   Aux shells -> PAOs            184.0
   MOs        -> AO shells        62.9
   PAOs       -> AO shells        64.0

Calculating integrals (0.1 sec, 11.242 MB)
Sorting integrals (0.0 sec, 11.231 MB)
Total time for the integral transformation: 0.2 sec
--------------------------------
INITIAL GUESS AND PNO GENERATION
--------------------------------

Populations of internal orbitals onto Fragments:
   2:      1.000    0.000  assigned to fragment   1
   3:      1.008    0.000  assigned to fragment   1
   4:      0.000    1.003  assigned to fragment   2
   5:      0.000    1.006  assigned to fragment   2
   6:      1.000    0.000  assigned to fragment   1
   7:      1.000    0.000  assigned to fragment   1
   8:      0.000    1.000  assigned to fragment   2
   9:      0.000    1.000  assigned to fragment   2

Summary assignment:
   4 orbitals assigned to fragment   1
   4 orbitals assigned to fragment   2

PNO truncation parameters                   .... 
    PAOOverlapThresh   =        1.000e-08

    TCutPairs          =        1.000e-05
    TCutPNO            =        1.000e-06
    TCutPNOSingles     =        3.000e-08
    TCutMP2Pairs       =        1.000e-06
    TCutMKN            =        1.000e-02
    TCutDO             =        1.000e-02

Pair selection                          .... not used
Type of local MP2 treatment                 .... semi-local MP2
Strategy for PNO selection                  .... occupation number selection
Pair density normalization                  .... MP2 norm
Spin component scaling                      .... not used

   .... Finished loop over pairs
Making pair pair interaction lists          ... 
Pair pair interaction statistics
Nr. of pairs:                        24
Nr. of Singles:                       8
Average (per pair domain)               (Total):
Atoms:                              5.5 (6)
PNOs:                               3.3
PAOs:                  172.5 (184)
Aux functions:                    406.0 (1000)
AuxAtoms:                           1.9 (6)
EXT1 basis functions:             184.0 (184)
Interacting Pairs:                  2.0 (24)
Interacting Pairs - Singles:        8.0 (8)
Average (per Single domain):
Atoms (Singles):                    5.1 (6)
PNOs (Singles):                    61.1
Basis functions (Singles):        163.9 (184)
Interacting Singles - Singles:      8.0 (8)
Interacting Singles - Pairs:       24.0 (24)
done

                       ===========================
                         24 OF   36 PAIRS ARE KEPT CCSD PAIRS
                          6 OF   36 PAIRS ARE KEPT MP2 PAIRS FOR (T)
                          6 OF   36 PAIRS ARE SKIPPED
                       ===========================

Total time spent in the initial guess                 ...     0.105 sec
Pair domain construction                              ...     0.000 sec
Time for calculating MP2 Guess in PAOs                ...     0.029 sec
     Time for Local metric generation                 ...     0.000 sec
     Time for Local Kij generation                    ...     0.010 sec
     Time for Local MP2 calculation                   ...     0.000 sec
     Time for LMP2 iterations                         ...     0.000 sec
          prep and other time                         ...     0.000 sec
          Time for sigma                              ...     0.000 sec (    0.000 sec in k-loop)
          Time for DIIS                               ...     0.000 sec
          Time for Update                             ...     0.000 sec
      Time for LMP2 I/O                               ...     0.000 sec
      Time for Initial PNO                            ...     0.000 sec
Time for generating PNOs                              ...     0.003 sec
Time for pairlist organization                        ...     0.000 sec
Time for pair-pair interaction organization           ...     0.001 sec
Size of the domain VM**-1/2 file                      ...         0 MB
SL-MP2 correlation energy (all non-screened pairs)    ...      -0.522685786227 Eh

Initial PNO correlation energy                        ...      -0.521633762095 Eh
sum of pair energies prescreened and skipped MP2 pairs...      -0.000023337269 Eh
sum of pair energies of crude MP2 skipped pairs only  ...       0.000000000000 Eh
sum of MP2 pair energies for pairs that were not kept ...      -0.000065572038 Eh
sum of PNO error estimates for the kept pairs         ...      -0.000986452094 Eh
                                                          --------------------
sum of all corrections                                         -0.001052024132
Initial total correlation energy                               -0.522685786227
Thresholds for map construction and integral transformation for fine MP2 and CCSD(T) calculation:
   TCutMKN   ...     1.0e-03
   TCutDO    ...     5.0e-03
   TCutPairs ...     1.0e-05
   TCutCMO   ...     1.0e-03
   TCutCPAO  ...     1.0e-03

Thresholds for map construction and integral transformation for strong Triples:
   TCutMKN   ...     1.0e-02
   TCutDO    ...     1.0e-02
   TCutCMO   ...     1.0e-03
   TCutCPAO  ...     1.0e-03

Thresholds for map construction and integral transformation for weak Triples:
   TCutMKN   ...     1.0e-01
   TCutDO    ...     2.0e-02
   TCutCMO   ...     1.0e-03
   TCutCPAO  ...     1.0e-03

--------------------------------
LOCAL RI TRANSFORMATION (IAVPAO)
--------------------------------

Orbital window:       2 to 9
Number of PAOs:     184
Basis functions:    184 (64 shells)
Aux. functions:    1000 (248 shells)
Use SHARK:           on

Processing maps (0.0 sec)
Average map sizes:
   Aux shells -> MOs               8.0
   Aux shells -> PAOs            184.0
   MOs        -> AO shells        62.9
   PAOs       -> AO shells        64.0

Calculating integrals (0.1 sec, 11.242 MB)
Sorting integrals (0.0 sec, 11.231 MB)
Total time for the integral transformation: 0.1 sec
--------------------------------
INITIAL GUESS AND PNO GENERATION
--------------------------------

Populations of internal orbitals onto Fragments:
   2:      1.000    0.000  assigned to fragment   1
   3:      1.008    0.000  assigned to fragment   1
   4:      0.000    1.003  assigned to fragment   2
   5:      0.000    1.006  assigned to fragment   2
   6:      1.000    0.000  assigned to fragment   1
   7:      1.000    0.000  assigned to fragment   1
   8:      0.000    1.000  assigned to fragment   2
   9:      0.000    1.000  assigned to fragment   2

Summary assignment:
   4 orbitals assigned to fragment   1
   4 orbitals assigned to fragment   2

PNO truncation parameters                   .... 
    ScaleTCutPNO       =        1.000e-02
    PAOOverlapThresh   =        1.000e-08

    TCutPairs          =        1.000e-05
    TCutPNO            =        1.000e-06
    TCutPNOSingles     =        3.000e-08
    TCutMP2Pairs       =        1.000e-06
    TCutMKN            =        1.000e-03
    TCutDO             =        5.000e-03

Pair selection                          .... not used
Type of local MP2 treatment                 .... full local PMP2
Strategy for PNO selection                  .... occupation number selection
Pair density normalization                  .... MP2 norm
Spin component scaling                      .... not used

PASS-1: Formation of initial guess LMP2 amplitudes
Initial amplitudes guess done. Entering LMP2 iteration loop:
   Max. no of iterations          ...  50
   Energy convergence tolerance   ...    1.0e-07
   Residual convergence tolerance ...    5.0e-07
   Fock matrix cutoff             ...    1.0e-05 Eh
   DIIS convergence acceleration parameters:
        Max # vectors in DIIS     ... 7
        Start iteration of DIIS   ... 0
        Levelshift                ... 2.000e-01
        Damping factor 1          ... 5.000e-01
        Damping factor 2          ... 1.000e+00
   L-MP2 PNO cut-off              ...   1.0e-08
   L-MP2 PNO cut-off (core)       ...   1.0e-10
342 of 420 terms in k-loop evaluated.

                           *** Turning on DIIS ***
LMP2-Iter=   0:  ELMP2= -0.532616125977  DE=   9.9e-03 RMAX=   5.3e-03
LMP2-Iter=   1:  ELMP2= -0.538012339847  DE=   5.4e-03 RMAX=   2.9e-03
LMP2-Iter=   2:  ELMP2= -0.538799312229  DE=   7.9e-04 RMAX=   5.5e-04
LMP2-Iter=   3:  ELMP2= -0.538902059722  DE=   1.0e-04 RMAX=   1.6e-04
LMP2-Iter=   4:  ELMP2= -0.538909660053  DE=   7.6e-06 RMAX=   1.9e-05
LMP2-Iter=   5:  ELMP2= -0.538909581072  DE=   7.9e-08 RMAX=   4.8e-06
LMP2-Iter=   6:  ELMP2= -0.538909554355  DE=   2.7e-08 RMAX=   4.7e-07
LMP2-Iter=   7:  ELMP2= -0.538909548039  DE=   6.3e-09 RMAX=   1.1e-07
LMP2-Iter=   8:  ELMP2= -0.538909550660  DE=   2.6e-09 RMAX=   1.4e-08 => CONVERGED
PASS-2: Formation of Pair natural orbitals
   .... Finished loop over pairs
Process  4:   (    5,     4):  99.947319949214 %
Process  4:   (    5,     5):  99.918819582820 %
Process  4:   (    5):  99.998248645591 % (IJ)
Process  5:   (    6,     2):  99.936129384274 %
Process  5:   (    6,     3):  99.936036354372 %
Process  6:   (    6,     6):  99.942481552138 %
Process  6:   (    7,     2):  99.935343579290 %
Process  6:   (    6):  99.998293856349 % (IJ)
Process  7:   (    7,     3):  99.935284669930 %
Process  7:   (    7,     6):  99.916414774725 %
Process  8:   (    7,     7):  99.949255638427 %
Process  8:   (    8,     2):  95.514198840581 %
Process  8:   (    7):  99.998187887043 % (IJ)
Process  9:   (    8,     3):  70.069385882632 %
Process  9:   (    8,     4):  99.935638964993 %
Process 10:   (    8,     5):  99.935589030618 %
Process 10:   (    8,     6):  77.446088343537 %
Process 11:   (    8,     7):  68.484170196407 %
Process 11:   (    8,     8):  99.941973470999 %
Process 11:   (    8):  99.998400002392 % (IJ)
Process 12:   (    9,     2):  79.853936228561 %
Process 12:   (    9,     3):  78.443261659950 %
Process 13:   (    9,     4):  99.936630795728 %
Process 13:   (    9,     5):  99.936589690072 %
Process 14:   (    9,     8):  99.916594000001 %
Process 14:   (    9,     9):  99.942430686502 %
Process 14:   (    9):  99.998313573156 % (IJ)

  - Occupation number analysis for DOUBLES-pairs:

   Orbital Indices     % trace(D) 
  -----------------------------------
Process  0:   (    2,     2):  99.910944726899 %
Process  0:   (    3,     2):  99.946275802808 %

  - Occupation number analysis for SINGLES-pairs:

   Orbital Index       % trace(D) 
  -----------------------------------
Process  0:   (    2):  99.998030845540 % (IJ)

 PNO Occupation Number Statistics: 
  | Av. % of trace(Dij) retained        ...  91.975709467658
  | sigma^2 in % of trace(Dij) retained ...   1.53e+02
  | Av. % of trace(Di) retained         ...  99.998233281800
  | sigma^2 in % of trace(Di) retained  ...   1.13e-08
Process  1:   (    3,     3):  99.918295125213 %
Process  1:   (    4,     2):  86.552971615055 %
Process  1:   (    3):  99.998140987119 % (IJ)
Process  2:   (    4,     3):  67.425957959936 %
Process  2:   (    4,     4):  99.918967504300 %
Process  2:   (    4):  99.998250457209 % (IJ)
Process  3:   (    5,     2):  70.586600941558 %
Process  3:   (    5,     3):  66.237697078198 %
 Distributions of % trace(Dij) recovered:
  |       >= 99.9  ...    20 ( 66.7 % of all pairs)
  |   [60.0, 70.0) ...     3 ( 10.0 % of all pairs)
  |   [70.0, 80.0) ...     5 ( 16.7 % of all pairs)
  |   [80.0, 90.0) ...     1 (  3.3 % of all pairs)
  |   [90.0, 99.0) ...     1 (  3.3 % of all pairs)
 Distributions of % trace(Di) recovered :
  |       >= 99.9  ...     8 (100.0 % of all I-pairs )

Making pair pair interaction lists          ... 
Pair pair interaction statistics
Nr. of pairs:                        24
Nr. of Singles:                       8
Average (per pair domain)               (Total):
Atoms:                              6.0 (6)
PNOs:                               3.3
PAOs:                  184.0 (184)
Aux functions:                    564.7 (1000)
AuxAtoms:                           3.3 (6)
EXT1 basis functions:             184.0 (184)
Interacting Pairs:                  2.0 (24)
Interacting Pairs - Singles:        8.0 (8)
Average (per Single domain):
Atoms (Singles):                    6.0 (6)
PNOs (Singles):                    62.0
Basis functions (Singles):        184.0 (184)
Interacting Singles - Singles:      8.0 (8)
Interacting Singles - Pairs:       24.0 (24)
done

                       ===========================
                         24 OF   30 PAIRS ARE KEPT
                       ===========================

Total time spent in the initial guess                 ...     0.279 sec
Pair domain construction                              ...     0.000 sec
Time for calculating MP2 Guess in PAOs                ...     0.046 sec
     Time for Local metric generation                 ...     0.000 sec
     Time for Local Kij generation                    ...     0.023 sec
     Time for Local MP2 calculation                   ...     0.000 sec
     Time for LMP2 iterations                         ...     0.119 sec
          prep and other time                         ...     0.002 sec
          Time for sigma                              ...     0.036 sec (    0.030 sec in k-loop)
          Time for DIIS                               ...     0.063 sec
          Time for Update                             ...     0.003 sec
      Time for LMP2 I/O                               ...     4.604 sec
      Time for Initial PNO                            ...     0.011 sec
Time for generating PNOs                              ...     0.001 sec
Time for pairlist organization                        ...     0.000 sec
Time for pair-pair interaction organization           ...     0.001 sec
Size of the domain VM**-1/2 file                      ...       121 MB
Size of the P2V_red file                              ...         1 MB
L-MP2 correlation energy (all non-screened pairs)     ...      -0.538909550660 Eh
L-MP2 PNO error correction                            ...      -0.000005468048 Eh
                                                          --------------------
Initial total L-MP2 energy (non-screened pairs)       ...      -0.538915018708 Eh

Initial PNO correlation energy                        ...      -0.537866779341 Eh
sum of pair energies estimated for screened out pairs ...      -0.000023337269 Eh
sum of MP2 pair energies for pairs that were not kept ...      -0.000046801651 Eh
sum of PNO error estimates for the kept pairs         ...      -0.001009372187 Eh
                                                          --------------------
sum of all corrections                                         -0.001079511107
Initial total correlation energy                               -0.538946290448
Thresholds for map construction and integral transformation for fine MP2 and CCSD(T) calculation:
   TCutMKN   ...     1.0e-03
   TCutDO    ...     5.0e-03
   TCutPairs ...     1.0e-05
   TCutCMO   ...     1.0e-03
   TCutCPAO  ...     1.0e-03

Time for aux screen maps:            0.002
Time for maps after fine MP2:            0.004
-----------------------------
LOCAL RI TRANSFORMATION (IJV)
-----------------------------

Orbital window:       2 to 9
Basis functions:    184 (64 shells)
Aux. functions:    1000 (248 shells)
Use SHARK:           on

Processing maps (0.0 sec)
Average map sizes:
   Aux shells -> MOs(i)            7.2
   Aux shells -> MOs(j)            8.0
   MOs        -> AO shells        62.9

Calculating integrals (0.1 sec, 0.459 MB)
Sorting integrals (0.0 sec, 0.447 MB)
Total time for the integral transformation: 0.1 sec
--------------------------------
LOCAL RI TRANSFORMATION (VABPAO)
--------------------------------

Number of PAOs:     184
Basis functions:    184 (64 shells)
Aux. functions:    1000 (248 shells)
Use SHARK:           on

Processing maps (0.0 sec)
Average map sizes:
   Aux shells -> PAOs            184.0
   PAOs       -> AO shells        64.0

Calculating integrals (0.2 sec, 258.312 MB)
Finished
Precomputing pair/pair interactions        ... 

-------------------------------------
Pair Pair Term precalculation with     
RI-(ij|mn) and (im|jn) transformation  
ON THE FLY                             
-------------------------------------

Max core memory to be used                    ...   4000 MB
Number of batches needed                      ...      1 
Average Memory used per batch                 ...      0 MB
Pair Pair terms per batch                     ...      0 
Total number of pairs                         ...     24 
Memory needed for all IJPairs                 ...      0 MB
   IBatch   1 (of   1)              ... done (    0.592 sec)
Total EXT                           ...           0.592 sec

Detailed timings: 
Reading/generating VMAT                    ...          0.001 sec
Reading 3-index integrals                  ...          0.084 sec
Sorting of data                            ...          0.180 sec
Get Pair1 ...          0.000 sec
Get Pair2 ...          0.000 sec
Get Pair3 ...          0.000 sec
Get Pair4 ...          0.000 sec
Get Pair5 ...          0.000 sec
Get Pair6 ...          0.000 sec
Orthogonalization of the 3-index integrals ...          0.016 sec
Multipl. of 3-index integrals              ...          0.256 sec
GetNewMat              ...          0.006 sec
Generating IJMN (orthog. + mult.)          ...          0.503 sec
Generating IJMN (orthog. + mult.) 1         ...          0.481 sec
Generating IJMN (orthog. + mult.) 2         ...          0.000 sec
Generating IJMN (orthog. + mult.) 3         ...          0.008 sec
Generating IJMN (orthog. + mult.) 4         ...          0.014 sec
Generating IMJN (orthog. + mult.)          ...          0.034 sec

done (    0.722 sec)
---------------------
RI-PNO TRANSFORMATION
---------------------

Total Number of PNOs                   ...   831
Average number of PNOs per pair        ...    34
Maximal number of PNOs per pair        ...    43
   #pairs with  1 -  5 PNOs   :    4
   #pairs with  6 - 10 PNOs   :    0
   #pairs with 11 - 15 PNOs   :    0
   #pairs with 16 - 20 PNOs   :    0
   #pairs with 21 - 25 PNOs   :    0
   #pairs with 26 - 30 PNOs   :    0
   #pairs with 31 - 35 PNOs   :    0
   #pairs with 36 - 40 PNOs   :    8
   #pairs with 41 - 45 PNOs   :   12
   #pairs with 46 - 50 PNOs   :    0

Generation of (ij|ab)[P] integrals            ... on
Generation of (ia|bc)[P],(ja|bc)[P] integrals ... on
Storage of 3 and 4 external integrals         ... on
Generation of ALL (ka|bc)[P] integrals        ... on
Keep RI integrals in memory                   ... off
PNO Integral generation
Max core memory to be used                    ...   4000 MB
Number of batches needed                      ...      1 
Memory available for IJPairs                  ...   3941 MB
Memory needed per IJPair                      ...     12 MB
Total number of pairs                         ...     24 
[...]

Decomposition of the intra-fragment strong pairs energies .. 

FRAGMENT    1 =  -0.273557995871 Eh ...   

----------------------------------------------------------------------------------------------------------------------------------------
    i   j  type :        EP         (%)         Direct-            Single             Double         PNO in Mulliken                   
                                           Double Excitation     Charge-Transfer    Charge-Transfer  population range                   
                                                                                                      <0.7   >0.7                       
----------------------------------------------------------------------------------------------------------------------------------------
    7     7  :     -0.031958305 ( 11.68)      -0.031958305      0.000000000      0.000000000       0      40
    6     6  :     -0.031544837 ( 11.53)      -0.031544837      0.000000000      0.000000000       0      39
    3     2  :     -0.029653894 ( 10.84)      -0.029653894      0.000000000      0.000000000       0      43
    7     2  :     -0.026380977 (  9.64)      -0.026380977      0.000000000      0.000000000       0      43
    7     3  :     -0.026372057 (  9.64)      -0.026372057      0.000000000      0.000000000       0      43
    2     2  :     -0.026336129 (  9.63)      -0.026336129      0.000000000      0.000000000       0      36
    3     3  :     -0.026327889 (  9.62)      -0.026327889      0.000000000      0.000000000       0      37
    6     2  :     -0.026231877 (  9.59)      -0.026231877      0.000000000      0.000000000       0      43
    6     3  :     -0.026224187 (  9.59)      -0.026224187      0.000000000      0.000000000       0      43
    7     6  :     -0.022527843 (  8.24)      -0.022527843      0.000000000      0.000000000       0      42

Overall summary of excitation mechanisms for this fragment:
  Total direct double excitations (i->a(ij))(j->b(ij))                      -0.273557996 (100.000 per cent)
  Total single charge-transfer    (i->a(ij))(j->b(X)) & (i->a(X))(j->b(ij))  0.000000000 (-0.000 per cent)
  Total double charge transfer    (i->a(X))(j->b(X))                         0.000000000 (-0.000 per cent)
                                                       -----------------------------
  Sum                                                  -0.273557996
  Consistency check                                    -0.273557996
 done 
 
FRAGMENT    2 =  -0.273590440064 Eh ...   

----------------------------------------------------------------------------------------------------------------------------------------
    i   j  type :        EP         (%)         Direct-            Single             Double         PNO in Mulliken                   
                                           Double Excitation     Charge-Transfer    Charge-Transfer  population range                   
                                                                                                      <0.7   >0.7                       
----------------------------------------------------------------------------------------------------------------------------------------
    8     8  :     -0.031937118 ( 11.67)      -0.031937118      0.000000000      0.000000000       0      39
    9     9  :     -0.031560245 ( 11.54)      -0.031560245      0.000000000      0.000000000       0      39
    5     4  :     -0.029651663 ( 10.84)      -0.029651663      0.000000000      0.000000000       0      43
    8     4  :     -0.026381115 (  9.64)      -0.026381115      0.000000000      0.000000000       0      43
    8     5  :     -0.026378371 (  9.64)      -0.026378371      0.000000000      0.000000000       0      43
    4     4  :     -0.026328692 (  9.62)      -0.026328692      0.000000000      0.000000000       0      37
    5     5  :     -0.026328442 (  9.62)      -0.026328442      0.000000000      0.000000000       0      37
    9     4  :     -0.026245083 (  9.59)      -0.026245083      0.000000000      0.000000000       0      43
    9     5  :     -0.026242243 (  9.59)      -0.026242243      0.000000000      0.000000000       0      43
    9     8  :     -0.022537468 (  8.24)      -0.022537468      0.000000000      0.000000000       0      42

Overall summary of excitation mechanisms for this fragment:
  Total direct double excitations (i->a(ij))(j->b(ij))                      -0.273590440 (100.000 per cent)
  Total single charge-transfer    (i->a(ij))(j->b(X)) & (i->a(X))(j->b(ij))  0.000000000 (-0.000 per cent)
  Total double charge transfer    (i->a(X))(j->b(X))                         0.000000000 (-0.000 per cent)
                                                       -----------------------------
  Sum                                                  -0.273590440
  Consistency check                                    -0.273590440
 done 
 
 

Decomposition of the inter-fragments strong pairs energies .. 

FRAGMENTS    2,1 =  -0.000060561974 Eh ...   

------------------------------------------------------------------------------------------------------------------------------------------------
    i   j  type :         EP        (%)         Dipole-            Cross              Charge        Charge          PNO in Mulliken            
                                                 Dipole           Excitation          Transfer      Transfer        population range            
                                                                                                                      <0.7  >0.7                
------------------------------------------------------------------------------------------------------------------------------------------------
    8     2  :     -0.000031393 ( 51.84)      -0.000030103     -0.000000153     -0.000000978     -0.000000159       1       4
    4     2  :     -0.000011328 ( 18.71)      -0.000011187     -0.000000067     -0.000000047     -0.000000028       0       4
    5     2  :     -0.000009373 ( 15.48)      -0.000009175     -0.000000080     -0.000000049     -0.000000070       0       2
    8     3  :     -0.000008467 ( 13.98)      -0.000008345     -0.000000051     -0.000000057     -0.000000013       0       2
----------------------------------------------------------------------------------------------------------------------------------------------------------
                   -0.000060562               -0.000058809     -0.000000352     -0.000001132     -0.000000270 
                                                 ( 97.11%)        (  0.58%)        (  1.87%)        (  0.45%)
----------------------------------------------------------------------------------------------------------------------------------------------------------

Overall summary of excitation mechanisms for this fragment pair:
  Total local dipole excitations    (i->a(i))(j->b(j)) -0.000058809 (97.106 per cent)
  Total Cross excitations           (i->a(j))(j->b(i)) -0.000000352 ( 0.580 per cent)
  Total Charge transfer excitations (i->a(i))(j->b(i)) -0.000001132 ( 1.869 per cent)
  Total Charge transfer excitations (i->a(j))(j->b(j)) -0.000000270 ( 0.445 per cent)
                                                       -----------------------------
  Sum                                                  -0.000060562
  Consistency check                                    -0.000060562
 done 
 
 
Summary Strong Pairs Energy Decomposition    
 
Intra fragment contributions: 
INTRA Fragment 1                       -0.273557996 
INTRA Fragment 2                       -0.273590440 

Charge transfer contributions: 
Charge Transfer 1 to 2                 -0.000001132 
Charge Transfer 2 to 1                 -0.000000270 

Dispersion contributions: 
Dispersion  2,1                        -0.000059161 

Singles contributions:                   
Singles energy                         -0.000000711 
 

------------------------------------------------- 
FINAL SUMMARY DLPNO-CCSD ENERGY DECOMPOSITION (Eh)
------------------------------------------------- 
 
Intrafragment REF. energy:                   
Intra fragment   1 (REF.)              -76.058988114     
Intra fragment   2 (REF.)              -76.058939994     

Interaction of fragments  2 and  1:  
Electrostatics (REF.)                  -0.001635879 
Exchange (REF.)                        -0.000027910 
Dispersion (strong pairs)              -0.000059161 
Dispersion (weak pairs)                -0.000059883 

Sum of non dispersive correlation terms: 
Non dispersion (strong pairs)          -0.547150548  
Non dispersion (weak pairs)            -0.000996291  

#Time for LED analysis ..       1.0 (sec)



--------------------------------------------------------------------------------
                                    TIMINGS
--------------------------------------------------------------------------------


Total execution time                   ...       10.422 sec

Localization of occupied MO's          ...        0.254 sec (  2.4%)
Fock Matrix Formation                  ...        0.458 sec (  4.4%)
Global overlap, Fock, MKN matrices     ...        0.211 sec (  2.0%)
Differential overlap integrals         ...        0.621 sec (  6.0%)
Organizing maps                        ...        0.010 sec (  0.1%)
RI 3-index integral generations        ...        0.611 sec (  5.9%)
RI-PNO integral transformation         ...        1.363 sec ( 13.1%)
Initial Guess                          ...        0.390 sec (  3.7%)
DIIS Solver                            ...        0.140 sec (  1.3%)
State Vector Update                    ...        0.001 sec (  0.0%)
Sigma-vector construction              ...        3.069 sec ( 29.4%)
  <D|H|D>(0-ext)                       ...        0.021 sec (  0.7% of sigma)
  <D|H|D>(2-ext)                       ...        0.115 sec (  3.8% of sigma)
  <D|H|D>(4-ext)                       ...        0.442 sec ( 14.4% of sigma)
  <D|H|D>(4-ext-corr)                  ...        1.395 sec ( 45.4% of sigma)
  CCSD doubles correction              ...        0.003 sec (  0.1% of sigma)
  <S|H|S>                              ...        0.065 sec (  2.1% of sigma)
  <S|H|D>(1-ext)                       ...        0.006 sec (  0.2% of sigma)
  <S|H|D>(3-ext)                       ...        0.014 sec (  0.5% of sigma)
  Fock-dressing                        ...        0.145 sec (  4.7% of sigma)
  Singles amplitudes                   ...        0.030 sec (  1.0% of sigma)
  (ik|jl)-dressing                     ...        0.029 sec (  0.9% of sigma)
  (ij|ab),(ia|jb)-dressing             ...        0.050 sec (  1.6% of sigma)
  Pair energies                        ...        0.001 sec (  0.0% of sigma)
Total Time for computing (T)           ...        2.245 sec ( 21.5% of ALL)
Local Energy Decomposition             ...        0.986 sec (  9.5% of ALL)


Maximum memory used throughout the entire MDCI-calculation: 178.2 MB

-------------------------   --------------------
FINAL SINGLE POINT ENERGY      -152.685361675651
-------------------------   --------------------


                            ***************************************
                            *     ORCA property calculations      *
                            ***************************************


  WARNING: The energy has been calculated at the MDCI level but the densities
           used in the property calculations are still SCF densities
           MDCI response densities have not been calculated 
           use %mdci Density linearized end
           or  %mdci Density unrelaxed end
           or  %mdci Density orbopt end

                                    ---------------------
                                    Active property flags
                                    ---------------------
   (+) Dipole Moment


------------------------------------------------------------------------------
                       ORCA ELECTRIC PROPERTIES CALCULATION
------------------------------------------------------------------------------

Dipole Moment Calculation                       ... on
Quadrupole Moment Calculation                   ... off
Polarizability Calculation                      ... off
GBWName                                         ... frag21.gbw
Electron density                                ... frag21.scfp
The origin for moment calculation is the CENTER OF MASS  = ( 0.703642, -0.825056  0.731474)

-------------
DIPOLE MOMENT
-------------
                                X             Y             Z
Electronic contribution:     -0.02445       0.11615       0.09261
Nuclear contribution   :      0.22615      -0.60509      -0.46763
                        -----------------------------------------
Total Dipole Moment    :      0.20169      -0.48894      -0.37502
                        -----------------------------------------
Magnitude (a.u.)       :      0.64837
Magnitude (Debye)      :      1.64802



--------------------
Rotational spectrum 
--------------------
 
Rotational constants in cm-1:     6.702049     0.089111     0.088687 
Rotational constants in MHz : 200922.359672  2671.471831  2658.774863 

 Dipole components along the rotational axes: 
x,y,z [a.u.] :    -0.358043    -0.399486    -0.364141 
x,y,z [Debye]:    -0.910072    -1.015412    -0.925572 

 

--------------------------------
SUGGESTED CITATIONS FOR THIS RUN
--------------------------------

Below you find a list of papers that are relevant to this ORCA run
We neither can nor want to force you to cite these paper, but we appreciate if you do
You receive ORCA, which is the product of a lot of hard work by many enthusiastic individuals, for free
The *only* thing we kindly ask in return is that you cite our papers,
We deeply appreciate it, if you show your appreciation for ORCA but *not* just citing the generic ORCA reference.

Please note that relegating all ORCA citations to the supporting information does *not* help us.
SI sections are not index - citations you put there will not count into our citation statistics
But we need these citations in order to attract the funding ressources that allow us to do what we are doing

Therefore, please consider citing at least a few of the papers listed below, if you are a happy ORCA user

In addition to the list printed below, the program has created the file frag21.bibtex that contains the list in bibtex format
In this format, you can import it easily in all common literature databanks and citation aid programs


List of essential papers. We consider these as the minimum necessary citations

  1. Neese,F.
     Software update: the ORCA program system, version 5.0
     WIRES Comput. Molec. Sci., 2022 12(1)e1606
     doi.org/10.1002/wcms.1606

List of papers to cite with high priority. The work reported in these papers was absolutely
necessary for this run to complete.
Our perspective: the developers of density functionals and basis sets usually get cited in chemistry papers
Good! But without the algorithms to do something with them, the functionals or basis sets would not do anything.
Hence, in our opinion, the algorithm design and method developments papers are equally worthy of getting cited

  1. Neese,F.
     An improvement of the resolution of the identity approximation for the formation of the Coulomb matrix
     J. Comp. Chem., 2003 24(14)1740-1747
     doi.org/10.1002/jcc.10318
  2. Neese,F.; Wennmohs,F.; Hansen,A.; Becker,U.
     Efficient, approximate and parallel Hartree-Fock and hybrid DFT calculations. A 'chain-of-spheres' algorithm for the Hartree-Fock exchange
     Chem. Phys., 2009 356(1-3)98-109
     doi.org/10.1016/j.chemphys.2008.10.036
  3. Neese,F.; Hansen,A.; Liakos,D.G.
     Efficient and accurate approximations to the local coupled cluster singles doubles method using a truncated pair natural orbital basis
     J. Chem. Phys., 2009 131 064103
     doi.org/10.1063/1.3173827
  4. Neese,F.; Wennmohs,F.; Hansen,A.
     Efficient and accurate local approximations to coupled-electron pair approaches: An attempt to revive the pair natural orbital method
     J. Chem. Phys., 2009 130 114108
     doi.org/10.1063/1.3086717
  5. Riplinger,C.; Neese,F.
     An efficient and near linear scaling pair natural orbital based local coupled cluster method
     J. Chem. Phys., 2013 138(3)Art. No. 034106
     doi.org/10.1063/1.4773581
  6. Riplinger,C.; Sandhoefer,B.; Hansen,A.; Neese,F.
     Natural triple excitations in local coupled cluster calculations with pair natural orbitals
     J. Chem. Phys., 2013 139(13)Art. No. 134101
     doi.org/10.1063/1.4821834
  7. Riplinger,C.; Pinski,P.; Becker,U.; Valeev,E.F.; Neese,F.
     Sparse maps-A systematic infrastructure for reduced-scaling electronic structure methods. II. Linear scaling domain based pair natural orbital coupled cluster theory
     J. Chem. Phys., 2016 144 
     doi.org/10.1063/1.4939030
  8. Schneider,W.B.; Bistoni,G.; Sparta,M.; Saitow,M.; Riplinger,C.; Auer,A.A.; Neese,F.
     Decomposition of Intermolecular Interaction Energies within the Local Pair Natural Orbital Coupled Cluster Framework
     J. Theo. Comp. Chem., 2016 12 4778-4792
     doi.org/10.1021/acs.jctc.6b00523
  9. Bistoni,G.; Riplinger,C.; Minenkov,Y.; Cavallo,L.; Auer,A.A.; Neese,F.
     Treating Subvalence Correlation Effects in Domain Based Pair Natural Orbital Coupled Cluster Calculations: An Out-of-the-Box Approach
     J. Theo. Comp. Chem., 2017 13 3220-3227
     doi.org/10.1021/acs.jctc.7b00352
 10. Guo,Y.; Riplinger,C.; Becker,U.; Liakos,D.G.; Minenkov,Y.; Cavallo,L.; Neese,F.
     Communication: An improved linear scaling perturbative triples correction for the domain based local pair-natural orbital based singles and doubles coupled cluster method DLPNO-CCSD(T)
     J. Chem. Phys., 2018 148 5
     doi.org/10.1063/1.5011798
 11. Helmich-Paris,B.; de Souza,B.; Neese,F.; Izsk,R.
     An improved chain of spheres for exchange algorithm
     J. Chem. Phys., 2021 155 104109
     doi.org/doi: 10.1063/5.0058766.

List of suggested additional citations. These are papers that are important in the 'surrounding' of 
of this run, or papers that preceded the highly important papers. If you like your results we are grateful for a citation.

  1. Izsak,R.; Neese,F.
     An overlap fitted chain of spheres exchange method
     J. Chem. Phys., 2011 135 144105
     doi.org/10.1063/1.3646921
  2. Izsak,R.; Hansen,A.; Neese,F.
     The resolution of identity and chain of spheres approximations for the LPNO-CCSD singles Fock term
     Molec. Phys., 2012 110 2413-2417
     doi.org/10.1080/00268976.2012.687466
  3. Neese,F.
     The ORCA program system
     WIRES Comput. Molec. Sci., 2012 2(1)73-78
     doi.org/10.1002/wcms.81
  4. Izsak,R.; Neese,F.; Klopper,W.
     Robust fitting techniques in the chain of spheres approximation to the Fock exchange: The role of the complementary space
     J. Chem. Phys., 2013 139 
     doi.org/10.1063/1.4819264
  5. Neese,F.
     Software update: the ORCA program system, version 4.0
     WIRES Comput. Molec. Sci., 2018 8(1)1-6
     doi.org/10.1002/wcms.1327
  6. Neese,F.; Wennmohs,F.; Becker,U.; Riplinger,C.
     The ORCA quantum chemistry program package
     J. Chem. Phys., 2020 152 Art. No. L224108
     doi.org/10.1063/5.0004608
  7. Bistoni,G.
     Finding chemical concepts in the Hilbert space: Coupled cluster analyses of noncovalent interactions
     WIRES Comput. Molec. Sci., 2020 10(3)e1442
     doi.org/10.1002/wcms.1442

Timings for individual modules:

Sum of individual times         ...       16.362 sec (=   0.273 min)
GTO integral calculation        ...        1.183 sec (=   0.020 min)   7.2 %
SCF iterations                  ...        4.130 sec (=   0.069 min)  25.2 %
MDCI module                     ...       11.048 sec (=   0.184 min)  67.5 %
                             ****ORCA TERMINATED NORMALLY****
TOTAL RUN TIME: 0 days 0 hours 0 minutes 17 seconds 226 msec
