                                 *****************
                                 * O   R   C   A *
                                 *****************

                                            #,                                       
                                            ###                                      
                                            ####                                     
                                            #####                                    
                                            ######                                   
                                           ########,                                 
                                     ,,################,,,,,                         
                               ,,#################################,,                 
                          ,,##########################################,,             
                       ,#########################################, ''#####,          
                    ,#############################################,,   '####,        
                  ,##################################################,,,,####,       
                ,###########''''           ''''###############################       
              ,#####''   ,,,,##########,,,,          '''####'''          '####       
            ,##' ,,,,###########################,,,                        '##       
           ' ,,###''''                  '''############,,,                           
         ,,##''                                '''############,,,,        ,,,,,,###''
      ,#''                                            '''#######################'''  
     '                                                          ''''####''''         
             ,#######,   #######,   ,#######,      ##                                
            ,#'     '#,  ##    ##  ,#'     '#,    #''#        ######   ,####,        
            ##       ##  ##   ,#'  ##            #'  '#       #        #'  '#        
            ##       ##  #######   ##           ,######,      #####,   #    #        
            '#,     ,#'  ##    ##  '#,     ,#' ,#      #,         ##   #,  ,#        
             '#######'   ##     ##  '#######'  #'      '#     #####' # '####'        



                  #######################################################
                  #                        -***-                        #
                  #          Department of theory and spectroscopy      #
                  #    Directorship and core code : Frank Neese         #
                  #        Max Planck Institute fuer Kohlenforschung    #
                  #                Kaiser Wilhelm Platz 1               #
                  #                 D-45470 Muelheim/Ruhr               #
                  #                      Germany                        #
                  #                                                     #
                  #                  All rights reserved                #
                  #                        -***-                        #
                  #######################################################


                         Program Version 5.0  -  CURRENT   -
                                (GIT: $76ccee9ca$)
                ($2022-06-14 15:14:42 +0200 $)

                  !                     WARNING:                         !
                  !         This is a DEVELOPMENT version                !

                         (BUILD: $Mi 15. Jun 00:07:41 CEST 2022$)


 With contributions from (in alphabetic order):
   Daniel Aravena         : Magnetic Suceptibility
   Michael Atanasov       : Ab Initio Ligand Field Theory (pilot matlab implementation)
   Alexander A. Auer      : GIAO ZORA, VPT2 properties, NMR spectrum
   Ute Becker             : Parallelization
   Giovanni Bistoni       : ED, misc. LED, open-shell LED, HFLD
   Martin Brehm           : Molecular dynamics
   Dmytro Bykov           : SCF Hessian
   Vijay G. Chilkuri      : MRCI spin determinant printing, contributions to CSF-ICE
   Dipayan Datta          : RHF DLPNO-CCSD density
   Achintya Kumar Dutta   : EOM-CC, STEOM-CC
   Dmitry Ganyushin       : Spin-Orbit,Spin-Spin,Magnetic field MRCI
   Miquel Garcia          : C-PCM and meta-GGA Hessian, CC/C-PCM, Gaussian charge scheme
   Yang Guo               : DLPNO-NEVPT2, F12-NEVPT2, CIM, IAO-localization
   Andreas Hansen         : Spin unrestricted coupled pair/coupled cluster methods
   Benjamin Helmich-Paris : MC-RPA, TRAH-SCF, COSX integrals
   Lee Huntington         : MR-EOM, pCC
   Robert Izsak           : Overlap fitted RIJCOSX, COSX-SCS-MP3, EOM
   Marcus Kettner         : VPT2
   Christian Kollmar      : KDIIS, OOCD, Brueckner-CCSD(T), CCSD density, CASPT2, CASPT2-K, improved NEVPT2
   Simone Kossmann        : Meta GGA functionals, TD-DFT gradient, OOMP2, MP2 Hessian
   Martin Krupicka        : Initial AUTO-CI
   Lucas Lang             : DCDCAS
   Marvin Lechner         : AUTO-CI (C++ implementation), FIC-MRCC
   Dagmar Lenk            : GEPOL surface, SMD
   Dimitrios Liakos       : Extrapolation schemes; Compound Job, initial MDCI parallelization
   Dimitrios Manganas     : Further ROCIS development; embedding schemes
   Dimitrios Pantazis     : SARC Basis sets
   Anastasios Papadopoulos: AUTO-CI, single reference methods and gradients
   Taras Petrenko         : DFT Hessian,TD-DFT gradient, ASA, ECA, R-Raman, ABS, FL, XAS/XES, NRVS
   Peter Pinski           : DLPNO-MP2, DLPNO-MP2 Gradient
   Christoph Reimann      : Effective Core Potentials
   Marius Retegan         : Local ZFS, SOC
   Christoph Riplinger    : Optimizer, TS searches, QM/MM, DLPNO-CCSD(T), (RO)-DLPNO pert. Triples
   Tobias Risthaus        : Range-separated hybrids, TD-DFT gradient, RPA, STAB
   Michael Roemelt        : Original ROCIS implementation
   Masaaki Saitow         : Open-shell DLPNO-CCSD energy and density
   Barbara Sandhoefer     : DKH picture change effects
   Avijit Sen             : IP-ROCIS
   Kantharuban Sivalingam : CASSCF convergence, NEVPT2, FIC-MRCI
   Bernardo de Souza      : ESD, SOC TD-DFT
   Georgi Stoychev        : AutoAux, RI-MP2 NMR, DLPNO-MP2 response
   Willem Van den Heuvel  : Paramagnetic NMR
   Boris Wezisla          : Elementary symmetry handling
   Frank Wennmohs         : Technical directorship


 We gratefully acknowledge several colleagues who have allowed us to
 interface, adapt or use parts of their codes:
   Stefan Grimme, W. Hujo, H. Kruse, P. Pracht,  : VdW corrections, initial TS optimization,
                  C. Bannwarth, S. Ehlert          DFT functionals, gCP, sTDA/sTD-DF
   Ed Valeev, F. Pavosevic, A. Kumar             : LibInt (2-el integral package), F12 methods
   Garnet Chan, S. Sharma, J. Yang, R. Olivares  : DMRG
   Ulf Ekstrom                                   : XCFun DFT Library
   Mihaly Kallay                                 : mrcc  (arbitrary order and MRCC methods)
   Jiri Pittner, Ondrej Demel                    : Mk-CCSD
   Frank Weinhold                                : gennbo (NPA and NBO analysis)
   Christopher J. Cramer and Donald G. Truhlar   : smd solvation model
   Lars Goerigk                                  : TD-DFT with DH, B97 family of functionals
   V. Asgeirsson, H. Jonsson                     : NEB implementation
   FAccTs GmbH                                   : IRC, NEB, NEB-TS, DLPNO-Multilevel, CI-OPT
                                                   MM, QMMM, 2- and 3-layer-ONIOM, Crystal-QMMM,
                                                   LR-CPCM, SF, NACMEs, symmetry and pop. for TD-DFT,
                                                   nearIR, NL-DFT gradient (VV10), updates on ESD,
                                                   ML-optimized integration grids
   S Lehtola, MJT Oliveira, MAL Marques          : LibXC Library
   Liviu Ungur et al                             : ANISO software


 Your calculation uses the libint2 library for the computation of 2-el integrals
 For citations please refer to: http://libint.valeyev.net

 Your ORCA version has been built with support for libXC version: 5.2.2
 For citations please refer to: https://tddft.org/programs/libxc/

 This ORCA versions uses:
   CBLAS   interface :  Fast vector & matrix operations
   LAPACKE interface :  Fast linear algebra routines
   SCALAPACK package :  Parallel linear algebra routines
   Shared memory     :  Shared parallel matrices


================================================================================

----- Orbital basis set information -----
Your calculation utilizes the basis: aug-cc-pVTZ 
    H, B-Ne : Obtained from the ccRepo (grant-hill.group.shef.ac.uk/ccrepo) Feb. 2017
              R. A. Kendall, T. H. Dunning, Jr., R. J. Harrison, J. Chem. Phys. 96, 6796 (1992)
         He : Obtained from the ccRepo (grant-hill.group.shef.ac.uk/ccrepo) Feb. 2017
              D. E. Woon, T. H. Dunning, Jr., J. Chem. Phys. 100, 2975 (1994)
  Li-Be, Na : Obtained from the ccRepo (grant-hill.group.shef.ac.uk/ccrepo) Feb. 2017
              B. P. Prascher, D. E. Woon, K. A. Peterson, T. H. Dunning, Jr., A. K. Wilson, Theor. Chem. Acc. 128, 69 (2011)
         Mg : Obtained from the Peterson Research Group Website (tyr0.chem.wsu.edu/~kipeters) Feb. 2017
              B. P. Prascher, D. E. Woon, K. A. Peterson, T. H. Dunning, Jr., A. K. Wilson, Theor. Chem. Acc. 128, 69 (2011)
      Al-Ar : Obtained from the ccRepo (grant-hill.group.shef.ac.uk/ccrepo) Feb. 2017
              D. E. Woon, T. H. Dunning, Jr., J. Chem. Phys. 98, 1358 (1993)
      Sc-Zn : Obtained from the ccRepo (grant-hill.group.shef.ac.uk/ccrepo) Feb. 2017
              N. B. Balabanov, K. A. Peterson, J. Chem. Phys. 123, 064107 (2005)
              N. B. Balabanov, K. A. Peterson, J. Chem. Phys. 125, 074110 (2006)
      Ga-Kr : Obtained from the ccRepo (grant-hill.group.shef.ac.uk/ccrepo) Feb. 2017
              A. K. Wilson, D. E. Woon, K. A. Peterson, T. H. Dunning, Jr., J. Chem. Phys. 110, 7667 (1999)
     Ag, Au : Obtained from the Peterson Research Group Website (tyr0.chem.wsu.edu/~kipeters) Feb. 2017
              K. A. Peterson, C. Puzzarini, Theor. Chem. Acc. 114, 283 (2005)

----- AuxJ basis set information -----
----- AuxC basis set information -----
================================================================================
                                        WARNINGS
                       Please study these warnings very carefully!
================================================================================


WARNING: Post HF methods need fully converged wavefunctions
  ===> : Setting SCFConvForced true
         You can overwrite this default with %scf ConvForced false 


WARNING: MDCI localization with Augmented Hessian Foster-Boys
  ===> : Switching off randomization!

INFO   : the flag for use of the SHARK integral package has been found!

================================================================================
                                       INPUT FILE
================================================================================
NAME = frag52.inp
|  1> ! DLPNO-CCSD(T1) aug-cc-pVTZ DEFGRID3 RIJCOSX def2/J aug-cc-pVQZ/C verytightscf TightPNO LED
|  2> 
|  3> %pal nprocs 16 end
|  4> %maxcore 4000
|  5> %scf maxiter 999 end
|  6> %basis auxj "autoaux" auxc "autoaux" autoauxlmax true end
|  7> %mdci TCutPNO 1e-6 printlevel 3 end
|  8> 
|  9> * xyz 0 1
| 10> O(1)    -0.845377446     1.902266646    -1.724481185
| 11> H(1)    -1.198971324     1.335278306    -1.003913817
| 12> H(1)    -0.953209570     1.388839038    -2.529056860
| 13> O(2)     2.482542995    -1.248988714     0.449488905
| 14> H(2)     2.616828786    -1.798226083    -0.326968465
| 15> H(2)     2.828107886    -0.362220961     0.204648083
| 16> *
| 17> 
| 18>                          ****END OF INPUT****
================================================================================

                       ****************************
                       * Single Point Calculation *
                       ****************************

---------------------------------
CARTESIAN COORDINATES (ANGSTROEM)
---------------------------------
  O     -0.845377    1.902267   -1.724481
  H     -1.198971    1.335278   -1.003914
  H     -0.953210    1.388839   -2.529057
  O      2.482543   -1.248989    0.449489
  H      2.616829   -1.798226   -0.326968
  H      2.828108   -0.362221    0.204648

----------------------------
CARTESIAN COORDINATES (A.U.)
----------------------------
  NO LB      ZA    FRAG     MASS         X           Y           Z
   0 O     8.0000    1    15.999   -1.597532    3.594763   -3.258797
   1 H     1.0000    1     1.008   -2.265727    2.523310   -1.897122
   2 H     1.0000    1     1.008   -1.801305    2.624525   -4.779225
   3 O     8.0000    2    15.999    4.691326   -2.360247    0.849411
   4 H     1.0000    2     1.008    4.945090   -3.398155   -0.617881
   5 H     1.0000    2     1.008    5.344349   -0.684498    0.386729

----------------------------------------------
CARTESIAN COORDINATES OF FRAGMENTS (ANGSTROEM)
----------------------------------------------

 FRAGMENT 1 
  O    -0.845377    1.902267   -1.724481
  H    -1.198971    1.335278   -1.003914
  H    -0.953210    1.388839   -2.529057

 FRAGMENT 2 
  O     2.482543   -1.248989    0.449489
  H     2.616829   -1.798226   -0.326968
  H     2.828108   -0.362221    0.204648

--------------------------------
INTERNAL COORDINATES (ANGSTROEM)
--------------------------------
 O      0   0   0     0.000000000000     0.00000000     0.00000000
 H      1   0   0     0.982711422586     0.00000000     0.00000000
 H      1   2   0     0.960509079824   105.39089909     0.00000000
 O      2   1   3     4.726982460723   105.10832754    88.98916326
 H      4   2   1     0.960510493747    99.95935883   292.12979731
 H      4   2   1     0.982710114820    72.77861656    35.29173653

---------------------------
INTERNAL COORDINATES (A.U.)
---------------------------
 O      0   0   0     0.000000000000     0.00000000     0.00000000
 H      1   0   0     1.857055457364     0.00000000     0.00000000
 H      1   2   0     1.815099110012   105.39089909     0.00000000
 O      2   1   3     8.932702290615   105.10832754    88.98916326
 H      4   2   1     1.815101781939    99.95935883   292.12979731
 H      4   2   1     1.857052986045    72.77861656    35.29173653

---------------------
BASIS SET INFORMATION
---------------------
There are 2 groups of distinct atoms

 Group   1 Type O   : 19s6p3d2f contracted to 5s4p3d2f pattern {88111/3111/111/11}
 Group   2 Type H   : 6s3p2d contracted to 4s3p2d pattern {3111/111/11}

Atom   0O    basis set group =>   1
Atom   1H    basis set group =>   2
Atom   2H    basis set group =>   2
Atom   3O    basis set group =>   1
Atom   4H    basis set group =>   2
Atom   5H    basis set group =>   2
---------------------------------
AUXILIARY/J BASIS SET INFORMATION
---------------------------------
There are 2 groups of distinct atoms

 Group   1 Type O   : 16s14p13d7f5g3h2i contracted to 16s14p13d7f5g3h2i pattern {1111111111111111/11111111111111/1111111111111/1111111/11111/111/11}
 Group   2 Type H   : 14s6p5d4f3g contracted to 14s6p5d4f3g pattern {11111111111111/111111/11111/1111/111}

Atom   0O    basis set group =>   1
Atom   1H    basis set group =>   2
Atom   2H    basis set group =>   2
Atom   3O    basis set group =>   1
Atom   4H    basis set group =>   2
Atom   5H    basis set group =>   2
---------------------------------
AUXILIARY/C BASIS SET INFORMATION
---------------------------------
There are 2 groups of distinct atoms

 Group   1 Type O   : 16s14p13d7f5g3h2i contracted to 16s14p13d7f5g3h2i pattern {1111111111111111/11111111111111/1111111111111/1111111/11111/111/11}
 Group   2 Type H   : 14s6p5d4f3g contracted to 14s6p5d4f3g pattern {11111111111111/111111/11111/1111/111}

Atom   0O    basis set group =>   1
Atom   1H    basis set group =>   2
Atom   2H    basis set group =>   2
Atom   3O    basis set group =>   1
Atom   4H    basis set group =>   2
Atom   5H    basis set group =>   2


           ************************************************************
           *        Program running with 16 parallel MPI-processes    *
           *              working on a common directory               *
           ************************************************************
------------------------------------------------------------------------------
                           ORCA GTO INTEGRAL CALCULATION
                           -- RI-GTO INTEGRALS CHOSEN --
------------------------------------------------------------------------------
------------------------------------------------------------------------------
                   ___                                                        
                  /   \      - P O W E R E D   B Y -                         
                 /     \                                                     
                 |  |  |   _    _      __       _____    __    __             
                 |  |  |  | |  | |    /  \     |  _  \  |  |  /  |          
                  \  \/   | |  | |   /    \    | | | |  |  | /  /          
                 / \  \   | |__| |  /  /\  \   | |_| |  |  |/  /          
                |  |  |   |  __  | /  /__\  \  |    /   |      \           
                |  |  |   | |  | | |   __   |  |    \   |  |\   \          
                \     /   | |  | | |  |  |  |  | |\  \  |  | \   \       
                 \___/    |_|  |_| |__|  |__|  |_| \__\ |__|  \__/        
                                                                              
                      - O R C A' S   B I G   F R I E N D -                    
                                      &                                       
                       - I N T E G R A L  F E E D E R -                       
                                                                              
 v1 FN, 2020, v2 2021                                                         
------------------------------------------------------------------------------


Reading SHARK input file frag52.SHARKINP.tmp ... ok
Calculating pre-screening integrals         ... done (  0.0 sec) Dimension = 76
Calculating pre-screening integrals (ORCA)  ... done (  0.0 sec) Dimension = 64
Organizing shell pair data                  ... done (  0.0 sec)
Shell pair information
Total number of shell pairs                 ...      2926
Shell pairs after pre-screening             ...      2502
Total number of primitive shell pairs       ...      3934
Primitive shell pairs kept                  ...      3167
          la=0 lb=0:    609 shell pairs
          la=1 lb=0:    656 shell pairs
          la=1 lb=1:    195 shell pairs
          la=2 lb=0:    450 shell pairs
          la=2 lb=1:    254 shell pairs
          la=2 lb=2:     93 shell pairs
          la=3 lb=0:    116 shell pairs
          la=3 lb=1:     72 shell pairs
          la=3 lb=2:     48 shell pairs
          la=3 lb=3:      9 shell pairs

Calculating one electron integrals          ... done (  0.0 sec)
Calculating RI/J V-Matrix + Cholesky decomp.... done (  0.2 sec)
Calculating RI/C V-Matrix + Cholesky decomp.... done (  0.2 sec)
Calculating Nuclear repulsion               ... done (  0.0 sec) ENN=     28.623246927461 Eh

SHARK setup successfully completed in   0.5 seconds

Maximum memory used throughout the entire GTOINT-calculation: 37.5 MB


           ************************************************************
           *        Program running with 16 parallel MPI-processes    *
           *              working on a common directory               *
           ************************************************************
-------------------------------------------------------------------------------
                                 ORCA SCF
-------------------------------------------------------------------------------

------------
SCF SETTINGS
------------
Hamiltonian:
 Ab initio Hamiltonian  Method          .... Hartree-Fock(GTOs)
 RI-approximation to the Coulomb term is turned on
   Number of AuxJ basis functions       .... 1000
   RIJ-COSX (HFX calculated with COS-X)).... on


General Settings:
 Integral files         IntName         .... frag52
 Hartree-Fock type      HFTyp           .... RHF
 Total Charge           Charge          ....    0
 Multiplicity           Mult            ....    1
 Number of Electrons    NEL             ....   20
 Basis Dimension        Dim             ....  184
 Nuclear Repulsion      ENuc            ....     28.6232469275 Eh

Convergence Acceleration:
 DIIS                   CNVDIIS         .... on
   Start iteration      DIISMaxIt       ....    12
   Startup error        DIISStart       ....  0.200000
   # of expansion vecs  DIISMaxEq       ....     5
   Bias factor          DIISBfac        ....   1.050
   Max. coefficient     DIISMaxC        ....  10.000
 Trust-Rad. Augm. Hess. CNVTRAH         .... auto
   Auto Start mean grad. ratio tolernc. ....  1.125000
   Auto Start start iteration           ....    20
   Auto Start num. interpolation iter.  ....    10
   Max. Number of Micro iterations      ....    24
   Max. Number of Macro iterations      .... Maxiter - #DIIS iter
   Max. Number of back steps            ....     5
   Number of Davidson start vectors     ....     2
   Converg. threshold I  (grad. norm)   ....   2.000e-06
   Converg. threshold II (energy diff.) ....   1.000e-09
   Grad. Scal. Fac. for Micro threshold ....   0.100
   Minimum threshold for Micro iter.    ....   1.000e-02
   NR start threshold (gradient norm)   ....   1.000e-04
   Initial trust radius                 ....   0.400
   Minimum AH scaling param. (alpha)    ....   1.000
   Maximum AH scaling param. (alpha)    .... 1000.000
   Inactive MOs                         .... canonicalized
   Orbital update algorithm             .... Taylor
   White noise on init. David. guess    .... on
   Maximum white noise                  ....   0.010
   Quad. conv. algorithm                .... NR
   Preconditioner                       .... approx. diagonal
 SOSCF                  CNVSOSCF        .... on
   Start iteration      SOSCFMaxIt      ....   150
   Startup grad/error   SOSCFStart      ....  0.003300
 Level Shifting         CNVShift        .... on
   Level shift para.    LevelShift      ....    0.2500
   Turn off err/grad.   ShiftErr        ....    0.0010
 Zerner damping         CNVZerner       .... off
 Static damping         CNVDamp         .... on
   Fraction old density DampFac         ....    0.7000
   Max. Damping (<1)    DampMax         ....    0.9800
   Min. Damping (>=0)   DampMin         ....    0.0000
   Turn off err/grad.   DampErr         ....    0.1000

SCF Procedure:
 Maximum # iterations   MaxIter         ....   999
 SCF integral mode      SCFMode         .... Direct
   Integral package                     .... SHARK and LIBINT hybrid scheme
 Reset frequency        DirectResetFreq ....    20
 Integral Threshold     Thresh          ....  1.000e-12 Eh
 Primitive CutOff       TCut            ....  1.000e-14 Eh

Convergence Tolerance:
 Convergence Check Mode ConvCheckMode   .... Total+1el-Energy
 Convergence forced     ConvForced      .... 1
 Energy Change          TolE            ....  1.000e-09 Eh
 1-El. energy change                    ....  1.000e-06 Eh
 Orbital Gradient       TolG            ....  2.000e-06
 Orbital Rotation angle TolX            ....  2.000e-06
 DIIS Error             TolErr          ....  1.000e-08


Diagonalization of the overlap matrix:
Smallest eigenvalue                        ... 3.543e-04
Time for diagonalization                   ...    0.005 sec
Threshold for overlap eigenvalues          ... 1.000e-08
Number of eigenvalues below threshold      ... 0
Time for construction of square roots      ...    0.004 sec
Total time needed                          ...    0.010 sec

Time for model grid setup =    0.016 sec

------------------------------
INITIAL GUESS: MODEL POTENTIAL
------------------------------
Loading Hartree-Fock densities                     ... done
Calculating cut-offs                               ... done
Initializing the effective Hamiltonian             ... done
Setting up the integral package (SHARK)            ... done
Starting the Coulomb interaction                   ... done (   0.0 sec)
Reading the grid                                   ... done
Mapping shells                                     ... done
Starting the XC term evaluation                    ... done (   0.0 sec)
Transforming the Hamiltonian                       ... done (   0.0 sec)
Diagonalizing the Hamiltonian                      ... done (   0.0 sec)
Back transforming the eigenvectors                 ... done (   0.0 sec)
Now organizing SCF variables                       ... done
                      ------------------
                      INITIAL GUESS DONE (   0.1 sec)
                      ------------------
--------------------
COSX GRID GENERATION
--------------------

GRIDX 1
-------
General Integration Accuracy     IntAcc      ... 4.020
Radial Grid Type                 RadialGrid  ... OptM3 with GC (2021)
Angular Grid (max. ang.)         AngularGrid ... 2 (Lebedev-110)
Angular grid pruning method      GridPruning ... 4 (adaptive)
Weight generation scheme         WeightScheme... Becke
Basis function cutoff            BFCut       ... 1.0000e-12
Integration weight cutoff        WCut        ... 1.0000e-14
Angular grids for H and He will be reduced by one unit
Partially contracted basis set               ... on
Rotationally invariant grid construction     ... off

Total number of grid points                  ...     8304
Total number of batches                      ...      132
Average number of points per batch           ...       62
Average number of grid points per atom       ...     1384
UseSFitting                                  ... on

GRIDX 2
-------
General Integration Accuracy     IntAcc      ... 4.338
Radial Grid Type                 RadialGrid  ... OptM3 with GC (2021)
Angular Grid (max. ang.)         AngularGrid ... 3 (Lebedev-194)
Angular grid pruning method      GridPruning ... 4 (adaptive)
Weight generation scheme         WeightScheme... Becke
Basis function cutoff            BFCut       ... 1.0000e-12
Integration weight cutoff        WCut        ... 1.0000e-14
Angular grids for H and He will be reduced by one unit
Partially contracted basis set               ... on
Rotationally invariant grid construction     ... off

Total number of grid points                  ...    18976
Total number of batches                      ...      300
Average number of points per batch           ...       63
Average number of grid points per atom       ...     3163
UseSFitting                                  ... on

GRIDX 3
-------
General Integration Accuracy     IntAcc      ... 4.871
Radial Grid Type                 RadialGrid  ... OptM3 with GC (2021)
Angular Grid (max. ang.)         AngularGrid ... 4 (Lebedev-302)
Angular grid pruning method      GridPruning ... 4 (adaptive)
Weight generation scheme         WeightScheme... Becke
Basis function cutoff            BFCut       ... 1.0000e-12
Integration weight cutoff        WCut        ... 1.0000e-14
Angular grids for H and He will be reduced by one unit
Partially contracted basis set               ... on
Rotationally invariant grid construction     ... off

Total number of grid points                  ...    37098
Total number of batches                      ...      584
Average number of points per batch           ...       63
Average number of grid points per atom       ...     6183
UseSFitting                                  ... on

Time for X-Grid setup             =    0.262 sec

 re-compute Schwartz prescreening matrix in partially contracted basis (1) ...done (   0.063 sec)
--------------
SCF ITERATIONS
--------------
ITER       Energy         Delta-E        Max-DP      RMS-DP      [F,P]     Damp
               ***  Starting incremental Fock matrix formation  ***
  0   -151.9177096134   0.000000000000 0.02737400  0.00071205  0.3808501 0.7000
  1   -151.9981488565  -0.080439243091 0.01787191  0.00047805  0.2233350 0.7000
                               ***Turning on DIIS***
  2   -152.0397022293  -0.041553372776 0.01148231  0.00026152  0.1194173 0.7000
  3   -152.3485502516  -0.308848022341 0.02958002  0.00048387  0.0849667 0.0000
  4   -152.0700011952   0.278549056366 0.00476284  0.00009108  0.0131667 0.0000
                      *** Initiating the SOSCF procedure ***
                           *** Shutting down DIIS ***
                      *** Re-Reading the Fockian *** 
                      *** Removing any level shift *** 
ITER       Energy         Delta-E        Max-DP      RMS-DP   
  5   -152.1179480851  -0.047946889909 0.00149003  0.00003727
               *** Restarting incremental Fock matrix formation ***
  6   -152.1187595209  -0.000811435714 0.00359535  0.00005910
  7   -152.1187711800  -0.000011659188 0.00125885  0.00001740
  8   -152.1187729862  -0.000001806160 0.00023016  0.00000446
  9   -152.1187736060  -0.000000619814 0.00008235  0.00000142
 10   -152.1187737619  -0.000000155861 0.00001461  0.00000023
 11   -152.1187737591   0.000000002755 0.00000258  0.00000008
 12   -152.1187737553   0.000000003857 0.00000120  0.00000002
                 **** Energy Check signals convergence ****
              ***Rediagonalizing the Fockian in SOSCF/NRSCF***

               *****************************************************
               *                     SUCCESS                       *
               *           SCF CONVERGED AFTER  13 CYCLES          *
               *****************************************************

Old exchange energy                            =    -17.856924878 Eh
New exchange energy                            =    -17.856924411 Eh
Exchange energy change after final integration =      0.000000466 Eh
Total energy after final integration           =   -152.118773288 Eh
Final COS-X integration done in                =     0.374 sec

----------------
TOTAL SCF ENERGY
----------------

Total Energy       :         -152.11877329 Eh           -4139.36226 eV

Components:
Nuclear Repulsion  :           28.62324693 Eh             778.87815 eV
Electronic Energy  :         -180.74202022 Eh           -4918.24041 eV
One Electron Energy:         -266.60887938 Eh           -7254.79643 eV
Two Electron Energy:           85.86685917 Eh            2336.55603 eV
Max COSX asymmetry :            0.00000038 Eh               0.00001 eV

Virial components:
Potential Energy   :         -303.92164163 Eh           -8270.12831 eV
Kinetic Energy     :          151.80286834 Eh            4130.76605 eV
Virial Ratio       :            2.00208102


---------------
SCF CONVERGENCE
---------------

  Last Energy change         ...    9.3183e-10  Tolerance :   1.0000e-09
  Last MAX-Density change    ...    1.3323e-15  Tolerance :   1.0000e-08
  Last RMS-Density change    ...    1.6465e-17  Tolerance :   1.0000e-09

             **** THE GBW FILE WAS UPDATED (frag52.gbw) ****
             **** DENSITY frag52.scfp WAS UPDATED ****
             **** ENERGY FILE WAS UPDATED (frag52.en.tmp) ****
             **** THE GBW FILE WAS UPDATED (frag52.gbw) ****
             **** DENSITY frag52.scfp WAS UPDATED ****
             **** ENERGY FILE WAS UPDATED (frag52.en.tmp) ****
----------------
ORBITAL ENERGIES
----------------

  NO   OCC          E(Eh)            E(eV) 
   0   2.0000     -20.569835      -559.7337 
   1   2.0000     -20.569692      -559.7298 
   2   2.0000      -1.346321       -36.6352 
   3   2.0000      -1.346211       -36.6323 
   4   2.0000      -0.712218       -19.3804 
   5   2.0000      -0.712133       -19.3781 
   6   2.0000      -0.581092       -15.8123 
   7   2.0000      -0.581060       -15.8114 
   8   2.0000      -0.509989       -13.8775 
   9   2.0000      -0.509032       -13.8515 
  10   0.0000       0.023923         0.6510 
  11   0.0000       0.041599         1.1320 
  12   0.0000       0.047331         1.2879 
  13   0.0000       0.052176         1.4198 
  14   0.0000       0.129328         3.5192 
  15   0.0000       0.139087         3.7847 
  16   0.0000       0.155099         4.2204 
  17   0.0000       0.171976         4.6797 
  18   0.0000       0.177819         4.8387 
  19   0.0000       0.183657         4.9976 
  20   0.0000       0.187799         5.1103 
  21   0.0000       0.206235         5.6119 
  22   0.0000       0.223227         6.0743 
  23   0.0000       0.224122         6.0987 
  24   0.0000       0.242993         6.6122 
  25   0.0000       0.250208         6.8085 
  26   0.0000       0.263232         7.1629 
  27   0.0000       0.279347         7.6014 
  28   0.0000       0.281298         7.6545 
  29   0.0000       0.303602         8.2614 
  30   0.0000       0.345845         9.4109 
  31   0.0000       0.356640         9.7047 
  32   0.0000       0.377465        10.2714 
  33   0.0000       0.399371        10.8674 
  34   0.0000       0.439668        11.9640 
  35   0.0000       0.439718        11.9653 
  36   0.0000       0.465092        12.6558 
  37   0.0000       0.467249        12.7145 
  38   0.0000       0.595341        16.2001 
  39   0.0000       0.604864        16.4592 
  40   0.0000       0.651420        17.7260 
  41   0.0000       0.660405        17.9705 
  42   0.0000       0.690015        18.7763 
  43   0.0000       0.708500        19.2793 
  44   0.0000       0.733668        19.9641 
  45   0.0000       0.739059        20.1108 
  46   0.0000       0.747855        20.3502 
  47   0.0000       0.751619        20.4526 
  48   0.0000       0.826271        22.4840 
  49   0.0000       0.828280        22.5386 
  50   0.0000       0.843036        22.9402 
  51   0.0000       0.863399        23.4943 
  52   0.0000       0.889158        24.1952 
  53   0.0000       0.901240        24.5240 
  54   0.0000       0.902077        24.5468 
  55   0.0000       0.917537        24.9675 
  56   0.0000       0.918603        24.9965 
  57   0.0000       0.918859        25.0034 
  58   0.0000       0.926070        25.1997 
  59   0.0000       0.931869        25.3574 
  60   0.0000       0.941123        25.6092 
  61   0.0000       0.958434        26.0803 
  62   0.0000       0.971616        26.4390 
  63   0.0000       1.008563        27.4444 
  64   0.0000       1.034419        28.1480 
  65   0.0000       1.043177        28.3863 
  66   0.0000       1.055126        28.7114 
  67   0.0000       1.081829        29.4381 
  68   0.0000       1.082687        29.4614 
  69   0.0000       1.092564        29.7302 
  70   0.0000       1.106707        30.1150 
  71   0.0000       1.108739        30.1703 
  72   0.0000       1.174037        31.9472 
  73   0.0000       1.178466        32.0677 
  74   0.0000       1.184732        32.2382 
  75   0.0000       1.188516        32.3412 
  76   0.0000       1.265079        34.4245 
  77   0.0000       1.274203        34.6728 
  78   0.0000       1.507117        41.0107 
  79   0.0000       1.519623        41.3510 
  80   0.0000       1.545855        42.0648 
  81   0.0000       1.550461        42.1902 
  82   0.0000       1.581464        43.0338 
  83   0.0000       1.604193        43.6523 
  84   0.0000       1.799527        48.9676 
  85   0.0000       1.801174        49.0124 
  86   0.0000       1.809120        49.2287 
  87   0.0000       1.833091        49.8809 
  88   0.0000       1.971109        53.6366 
  89   0.0000       1.977656        53.8148 
  90   0.0000       2.107784        57.3557 
  91   0.0000       2.109520        57.4029 
  92   0.0000       2.266753        61.6815 
  93   0.0000       2.267810        61.7102 
  94   0.0000       2.311894        62.9098 
  95   0.0000       2.316596        63.0378 
  96   0.0000       2.327283        63.3286 
  97   0.0000       2.333267        63.4914 
  98   0.0000       2.411852        65.6298 
  99   0.0000       2.414445        65.7004 
 100   0.0000       2.420646        65.8691 
 101   0.0000       2.424713        65.9798 
 102   0.0000       2.435017        66.2602 
 103   0.0000       2.460642        66.9575 
 104   0.0000       2.477929        67.4279 
 105   0.0000       2.495422        67.9039 
 106   0.0000       2.684461        73.0479 
 107   0.0000       2.689117        73.1746 
 108   0.0000       2.718618        73.9774 
 109   0.0000       2.727549        74.2204 
 110   0.0000       2.758073        75.0510 
 111   0.0000       2.769030        75.3491 
 112   0.0000       2.824786        76.8663 
 113   0.0000       2.826949        76.9252 
 114   0.0000       2.886770        78.5530 
 115   0.0000       2.891669        78.6863 
 116   0.0000       3.627619        98.7125 
 117   0.0000       3.632675        98.8501 
 118   0.0000       3.742241       101.8316 
 119   0.0000       3.753129       102.1278 
 120   0.0000       4.003646       108.9447 
 121   0.0000       4.003928       108.9524 
 122   0.0000       4.070167       110.7549 
 123   0.0000       4.093033       111.3771 
 124   0.0000       4.167828       113.4124 
 125   0.0000       4.173927       113.5783 
 126   0.0000       4.224087       114.9433 
 127   0.0000       4.230100       115.1069 
 128   0.0000       4.292893       116.8156 
 129   0.0000       4.300278       117.0165 
 130   0.0000       4.372349       118.9777 
 131   0.0000       4.373359       119.0052 
 132   0.0000       4.389951       119.4566 
 133   0.0000       4.390054       119.4594 
 134   0.0000       4.390367       119.4680 
 135   0.0000       4.404494       119.8524 
 136   0.0000       4.499909       122.4487 
 137   0.0000       4.501052       122.4798 
 138   0.0000       4.704765       128.0232 
 139   0.0000       4.707754       128.1045 
 140   0.0000       4.802502       130.6827 
 141   0.0000       4.804764       130.7443 
 142   0.0000       5.105732       138.9340 
 143   0.0000       5.109318       139.0316 
 144   0.0000       5.120350       139.3318 
 145   0.0000       5.122999       139.4039 
 146   0.0000       5.243203       142.6748 
 147   0.0000       5.249209       142.8382 
 148   0.0000       5.285469       143.8249 
 149   0.0000       5.289703       143.9401 
 150   0.0000       5.484293       149.2352 
 151   0.0000       5.486462       149.2942 
 152   0.0000       5.660684       154.0351 
 153   0.0000       5.662804       154.0927 
 154   0.0000       6.147528       167.2827 
 155   0.0000       6.155791       167.5076 
 156   0.0000       6.522970       177.4991 
 157   0.0000       6.525064       177.5560 
 158   0.0000       6.705180       182.4572 
 159   0.0000       6.706184       182.4845 
 160   0.0000       6.861558       186.7125 
 161   0.0000       6.865273       186.8136 
 162   0.0000       7.119695       193.7368 
 163   0.0000       7.124414       193.8652 
 164   0.0000       7.238006       196.9562 
 165   0.0000       7.258181       197.5052 
 166   0.0000       7.288963       198.3428 
 167   0.0000       7.290540       198.3857 
 168   0.0000       7.293650       198.4703 
 169   0.0000       7.295995       198.5341 
 170   0.0000       7.321670       199.2328 
 171   0.0000       7.324772       199.3172 
 172   0.0000       7.355779       200.1609 
 173   0.0000       7.357474       200.2070 
 174   0.0000       7.504780       204.2154 
 175   0.0000       7.506358       204.2584 
 176   0.0000       7.870035       214.1545 
 177   0.0000       7.870603       214.1700 
 178   0.0000       7.903865       215.0751 
 179   0.0000       7.904370       215.0888 
 180   0.0000       8.732082       237.6120 
 181   0.0000       8.732534       237.6243 
 182   0.0000      15.414393       419.4470 
 183   0.0000      15.441840       420.1938 

--------------------
FRAGMENT INFORMATION
--------------------
Fragment  1:    0   1   2 
Fragment  2:    3   4   5 


                    ********************************
                    * MULLIKEN POPULATION ANALYSIS *
                    ********************************

-------------------------
MULLIKEN FRAGMENT CHARGES
-------------------------
 Fragment   0 :   0.000001
 Fragment   1 :  -0.000001
Sum of fragment charges:    0.0000000

---------------------------------
MULLIKEN FRAGMENT OVERLAP CHARGES
---------------------------------
                  0          1    
      0      11.101115  -0.000410
      1      -0.000410  11.099503

-----------------------
MULLIKEN ATOMIC CHARGES
-----------------------
   0 O :   -0.465588
   1 H :    0.243001
   2 H :    0.222589
   3 O :   -0.466714
   4 H :    0.219591
   5 H :    0.247122
Sum of atomic charges:    0.0000000

--------------------------------
MULLIKEN REDUCED ORBITAL CHARGES
--------------------------------
  0 O s       :     3.875315  s :     3.875315
      pz      :     1.226736  p :     4.570633
      px      :     1.804889
      py      :     1.539008
      dz2     :    -0.000614  d :     0.018289
      dxz     :     0.001913
      dyz     :     0.011185
      dx2y2   :     0.002659
      dxy     :     0.003146
      f0      :     0.000071  f :     0.001351
      f+1     :     0.000146
      f-1     :     0.000207
      f+2     :     0.000301
      f-2     :     0.000384
      f+3     :     0.000163
      f-3     :     0.000080
  1 H s       :     0.646991  s :     0.646991
      pz      :     0.024485  p :     0.092731
      px      :     0.041492
      py      :     0.026754
      dz2     :     0.005062  d :     0.017277
      dxz     :     0.004204
      dyz     :     0.002723
      dx2y2   :     0.003208
      dxy     :     0.002079
  2 H s       :     0.659175  s :     0.659175
      pz      :     0.022821  p :     0.099200
      px      :     0.046508
      py      :     0.029871
      dz2     :     0.004220  d :     0.019036
      dxz     :     0.007572
      dyz     :     0.003576
      dx2y2   :     0.001549
      dxy     :     0.002119
  3 O s       :     3.877030  s :     3.877030
      pz      :     1.487200  p :     4.570036
      px      :     1.803616
      py      :     1.279220
      dz2     :     0.005345  d :     0.018275
      dxz     :     0.002425
      dyz     :     0.006852
      dx2y2   :     0.000899
      dxy     :     0.002755
      f0      :     0.000088  f :     0.001373
      f+1     :     0.000108
      f-1     :     0.000172
      f+2     :     0.000173
      f-2     :     0.000198
      f+3     :     0.000408
      f-3     :     0.000227
  4 H s       :     0.661307  s :     0.661307
      pz      :     0.023970  p :     0.100083
      px      :     0.046465
      py      :     0.029648
      dz2     :     0.006395  d :     0.019018
      dxz     :     0.005580
      dyz     :     0.000804
      dx2y2   :     0.002285
      dxy     :     0.003954
  5 H s       :     0.644382  s :     0.644382
      pz      :     0.029679  p :     0.091351
      px      :     0.041231
      py      :     0.020440
      dz2     :     0.000514  d :     0.017146
      dxz     :     0.000608
      dyz     :     0.006498
      dx2y2   :     0.003757
      dxy     :     0.005768


                     *******************************
                     * LOEWDIN POPULATION ANALYSIS *
                     *******************************

------------------------
LOEWDIN FRAGMENT CHARGES
------------------------
 Fragment   0 :  -0.000000
 Fragment   1 :   0.000000

----------------------------
LOEWDIN FRAGMENT BOND ORDERS
----------------------------
                  0          1    
      0      18.228641   0.002074
      1       0.002074  18.228497

----------------------
LOEWDIN ATOMIC CHARGES
----------------------
   0 O :    1.000200
   1 H :   -0.476223
   2 H :   -0.523977
   3 O :    1.000148
   4 H :   -0.524027
   5 H :   -0.476121

-------------------------------
LOEWDIN REDUCED ORBITAL CHARGES
-------------------------------
  0 O s       :     3.018571  s :     3.018571
      pz      :     1.151286  p :     3.896265
      px      :     1.408320
      py      :     1.336658
      dz2     :     0.015880  d :     0.070426
      dxz     :     0.008448
      dyz     :     0.041255
      dx2y2   :     0.001682
      dxy     :     0.003160
      f0      :     0.000390  f :     0.014538
      f+1     :     0.001098
      f-1     :     0.006365
      f+2     :     0.002737
      f-2     :     0.003438
      f+3     :     0.000390
      f-3     :     0.000120
  1 H s       :     0.582845  s :     0.582845
      pz      :     0.175138  p :     0.532823
      px      :     0.170146
      py      :     0.187540
      dz2     :     0.105597  d :     0.360554
      dxz     :     0.069305
      dyz     :     0.082205
      dx2y2   :     0.052837
      dxy     :     0.050610
  2 H s       :     0.593263  s :     0.593263
      pz      :     0.203400  p :     0.561574
      px      :     0.166119
      py      :     0.192055
      dz2     :     0.112840  d :     0.369141
      dxz     :     0.088357
      dyz     :     0.099907
      dx2y2   :     0.033829
      dxy     :     0.034207
  3 O s       :     3.018580  s :     3.018580
      pz      :     1.313595  p :     3.896293
      px      :     1.408787
      py      :     1.173910
      dz2     :     0.014699  d :     0.070435
      dxz     :     0.001073
      dyz     :     0.029810
      dx2y2   :     0.014206
      dxy     :     0.010647
      f0      :     0.001544  f :     0.014544
      f+1     :     0.000558
      f-1     :     0.005207
      f+2     :     0.001970
      f-2     :     0.001749
      f+3     :     0.002859
      f-3     :     0.000658
  4 H s       :     0.593317  s :     0.593317
      pz      :     0.230831  p :     0.561653
      px      :     0.167176
      py      :     0.163646
      dz2     :     0.117719  d :     0.369057
      dxz     :     0.079876
      dyz     :     0.083234
      dx2y2   :     0.045788
      dxy     :     0.042440
  5 H s       :     0.582840  s :     0.582840
      pz      :     0.149770  p :     0.532788
      px      :     0.169599
      py      :     0.213420
      dz2     :     0.032398  d :     0.360492
      dxz     :     0.019849
      dyz     :     0.110210
      dx2y2   :     0.098315
      dxy     :     0.099721


                      *****************************
                      * MAYER POPULATION ANALYSIS *
                      *****************************

  NA   - Mulliken gross atomic population
  ZA   - Total nuclear charge
  QA   - Mulliken gross atomic charge
  VA   - Mayer's total valence
  BVA  - Mayer's bonded valence
  FA   - Mayer's free valence

  ATOM       NA         ZA         QA         VA         BVA        FA
  0 O      8.4656     8.0000    -0.4656     1.9750     1.9750     0.0000
  1 H      0.7570     1.0000     0.2430     1.0155     1.0155     0.0000
  2 H      0.7774     1.0000     0.2226     1.0316     1.0316     0.0000
  3 O      8.4667     8.0000    -0.4667     1.9731     1.9731     0.0000
  4 H      0.7804     1.0000     0.2196     1.0356     1.0356    -0.0000
  5 H      0.7529     1.0000     0.2471     1.0095     1.0095     0.0000

  Mayer bond orders larger than 0.100000
B(  0-O ,  1-H ) :   0.9793 B(  0-O ,  2-H ) :   0.9959 B(  3-O ,  4-H ) :   0.9999 
B(  3-O ,  5-H ) :   0.9734 

-------
TIMINGS
-------

Total SCF time: 0 days 0 hours 0 min 3 sec 

Total time                  ....       3.490 sec
Sum of individual times     ....       5.397 sec  (154.6%)

Fock matrix formation       ....       4.913 sec  (140.8%)
  Split-RI-J                ....       0.658 sec  ( 13.4% of F)
  Chain of spheres X        ....       2.041 sec  ( 41.6% of F)
Diagonalization             ....       0.054 sec  (  1.5%)
Density matrix formation    ....       0.006 sec  (  0.2%)
Population analysis         ....       0.008 sec  (  0.2%)
Initial guess               ....       0.045 sec  (  1.3%)
Orbital Transformation      ....       0.000 sec  (  0.0%)
Orbital Orthonormalization  ....       0.000 sec  (  0.0%)
DIIS solution               ....       0.046 sec  (  1.3%)
SOSCF solution              ....       0.046 sec  (  1.3%)

Maximum memory used throughout the entire SCF-calculation: 72.9 MB


           ************************************************************
           *        Program running with 16 parallel MPI-processes    *
           *              working on a common directory               *
           ************************************************************


--------------------------------------------------------------------------------
                             ORCA-MATRIX DRIVEN CI
--------------------------------------------------------------------------------


Wavefunction type
-----------------
Correlation treatment                      ...      CCSD     
Single excitations                         ... ON
Orbital optimization                       ... OFF
Calculation of Z vector                    ... OFF
Calculation of Brueckner orbitals          ... OFF
Perturbative triple excitations            ... ON
Calculation of F12 correction              ... OFF
Frozen core treatment                      ... chemical core (4 el)
Reference Wavefunction                     ... RHF
  Internal Orbitals:     2 ...    9 (  8 MO's/ 16 electrons)
  Virtual  Orbitals:    10 ...  183 (174 MO's              )
Number of AO's                             ...    184
Number of electrons                        ...     20
Number of correlated electrons             ...     16

Algorithmic settings
--------------------
Integral transformation                    ... All integrals via the RI transformation
K(C) Formation                             ... RI-DLPNO
   PNO-Integral Storage                    ... ON DISK
   PNO occupation number cut-off           ... 1.000e-06
   Singles PNO occupation number cut-off   ... 3.000e-08
   PNO Mulliken prescreening cut-off       ... 1.000e-03
   Domain cut-off (Mulliken population)    ... 1.000e-03
   PNO Normalization                       ...    1
Maximum number of iterations               ...        50
Convergence tolerance (max. residuum)      ... 1.000e-06
Level shift for amplitude update           ... 2.000e-01
Maximum number of DIIS vectors             ...         7
DIIS turned on at iteration                ...         0
Damping before turning on DIIS             ...     0.500
Damping after turning on DIIS              ...     0.000
Pair specific amplitude update             ... OFF
Natural orbital iterations                 ... OFF
Perturbative natural orbital generation    ... OFF
Printlevel                                 ... 3

Singles Fock matrix elements calculated using PNOs.

Memory handling:
----------------
Maximum memory for working arrays          ...   4000 MB
Data storage in matrix containers          ... UNCOMPRESSED
Data type for integral storage             ... DOUBLE
In-Core Storage of quantities:
   Amplitudes+Sigma Vector      ... NO
   J+K operators                ... NO
   DIIS vectors                 ... NO
   3-external integrals         ... NO
   4-external integrals         ... NO

Localization treatment:
-----------------------
Localization option                        ...    6
Localization threshhold                    ... -1.0e+00
Using relative localization threshhold     ... 1.0e-08
Neglect threshold for strong pairs         ... 1.000e-05 Eh
Prescreening threshold for very weak pairs ... 1.000e-07 Eh

Initializing the integral package          ... done
Localizing the valence orbitals
Localizing the valence orbitals
------------------------------------------------------------------------------
                           ORCA ORBITAL LOCALIZATION
------------------------------------------------------------------------------

Input orbitals are from                  ... frag52.gbw
Output orbitals are to                   ... frag52.loc
Max. number of iterations                ... 128
Localizations seeded randomly            ... off
Convergence tolerance                    ... 2.000e-07
Using relative localization threshhold   ... 1.000e-08
Threshold for strong local MOs           ... 9.500e-01
Threshold for bond MOs                   ... 8.500e-01
Operator                                 ... 0
Orbital range for localization           ... 2 to 9
Localization criterion                   ... FOSTER-BOYS (AUGMENTED HESSIAN)
Doing the dipole integrals     ... o.k.
Initial value of the localization sum :   215.574032
ITERATION   0 : L=  219.0386261759 DL=  3.46e+00 (AVERGE_DL)=    0.3517606044 
ITERATION   1 : L=  219.7580384222 DL=  7.19e-01 (AVERGE_DL)=    0.1602912802 
ITERATION   2 : L=  219.9112382780 DL=  1.53e-01 (AVERGE_DL)=    0.0739690707 
ITERATION   3 : L=  219.9197214431 DL=  8.48e-03 (AVERGE_DL)=    0.0174060386 
ITERATION   4 : L=  219.9206854174 DL=  9.64e-04 (AVERGE_DL)=    0.0058675085 
ITERATION   5 : L=  219.9207915095 DL=  1.06e-04 (AVERGE_DL)=    0.0019465364 
ITERATION   6 : L=  219.9208023116 DL=  1.08e-05 (AVERGE_DL)=    0.0006211173 
ITERATION   7 : L=  219.9208033708 DL=  1.06e-06 (AVERGE_DL)=    0.0001944977 
ITERATION   8 : L=  219.9208034719 DL=  1.01e-07 (AVERGE_DL)=    0.0000600769 
LOCALIZATION SUM CONVERGED

------------------------------------------------------
AUGMENTED HESSIAN OPTIMIZATION OF FOSTER-BOYS ORBITALS
------------------------------------------------------

Spin operator:           0
Orbital window:          2 to 9
Number of iterations:    128
Gradient tolerance:      2.000e-07
Number of pairs:         28
Davidson threshold:      2000
Diagonalization method:  LAPACK
Iter:    0   L: 219.9208034719   Grad. norm: 8.636257e-04
   *** Likely close to a maximum now. ***
       Augmented Hessian eigenvalues:  2.30e-08 -1.28e+00 -1.28e+00 -3.21e+00 ... 
Iter:    1   L: 219.9208034833   Grad. norm: 8.466894e-09
LOCALIZATION HAS CONVERGED.

Eigenvalues of the Hessian:
  0 -1.281e+00
  1 -1.282e+00
  2 -3.208e+00
  3 -3.208e+00
  4 -4.693e+00
  5 -4.694e+00
  6 -5.337e+00
  7 -5.337e+00
  8 -7.199e+00
  9 -7.200e+00
    ...


--------------------------------------------------------------------------------
                    LOCALIZED MOLECULAR ORBITAL COMPOSITIONS
--------------------------------------------------------------------------------

The Mulliken populations for each LMO on each atom are computed
The LMO`s will be ordered according to atom index and type
  (A) Strongly localized MO`s have populations of >=0.950 on one atom
  (B) Two center bond orbitals have populations of >=0.850 on two atoms
  (C) Other MO`s are considered to be `delocalized`

FOUND  -   4 strongly local MO`s
       -   4 two center bond MO`s
       -   0 significantly delocalized MO`s

Rather strongly localized orbitals:
MO   5:   3O  -   1.003487
MO   4:   3O  -   1.001932
MO   3:   0O  -   1.003586
MO   2:   0O  -   1.001824
Bond-like localized orbitals:
MO   9:   5H  -   0.375377  and   3O  -   0.619545
MO   8:   4H  -   0.386779  and   3O  -   0.609150
MO   7:   2H  -   0.386113  and   0O  -   0.609219
MO   6:   1H  -   0.376090  and   0O  -   0.619027
Localized MO's were stored in: frag52.loc

Localizing the core orbitals
------------------------------------------------------------------------------
                           ORCA ORBITAL LOCALIZATION
------------------------------------------------------------------------------

Input orbitals are from                  ... frag52.loc
Output orbitals are to                   ... frag52.loc
Max. number of iterations                ... 128
Localizations seeded randomly            ... off
Convergence tolerance                    ... 2.000e-07
Using relative localization threshhold   ... 1.000e-08
Threshold for strong local MOs           ... 9.500e-01
Threshold for bond MOs                   ... 8.500e-01
Operator                                 ... 0
Orbital range for localization           ... 0 to 1
Localization criterion                   ... FOSTER-BOYS (AUGMENTED HESSIAN)
Doing the dipole integrals     ... o.k.
Initial value of the localization sum :    54.393732
ITERATION   0 : L=   54.3937320634 DL=  1.46e-08 (AVERGE_DL)=    0.0001208828 
LOCALIZATION SUM CONVERGED

------------------------------------------------------
AUGMENTED HESSIAN OPTIMIZATION OF FOSTER-BOYS ORBITALS
------------------------------------------------------

Spin operator:           0
Orbital window:          0 to 1
Number of iterations:    128
Gradient tolerance:      2.000e-07
Number of pairs:         1
Davidson threshold:      2000
Diagonalization method:  LAPACK
Iter:    0   L: 54.3937320634   Grad. norm: 4.097098e-18
   *** Likely close to a maximum now. ***
       Augmented Hessian eigenvalues:  4.57e-38 -3.68e+02
Iter:    1   L: 54.3937320634   Grad. norm: 0.000000e+00
LOCALIZATION HAS CONVERGED.

Eigenvalues of the Hessian:
  0 -3.675e+02


--------------------------------------------------------------------------------
                    LOCALIZED MOLECULAR ORBITAL COMPOSITIONS
--------------------------------------------------------------------------------

The Mulliken populations for each LMO on each atom are computed
The LMO`s will be ordered according to atom index and type
  (A) Strongly localized MO`s have populations of >=0.950 on one atom
  (B) Two center bond orbitals have populations of >=0.850 on two atoms
  (C) Other MO`s are considered to be `delocalized`

FOUND  -   2 strongly local MO`s
       -   0 two center bond MO`s
       -   0 significantly delocalized MO`s

Rather strongly localized orbitals:
MO   1:   3O  -   0.999253
MO   0:   0O  -   0.999147
Localized MO's were stored in: frag52.loc

Warning: reference  - re-canonicalizations have been set to INT 1 VIRT 1
Warning: internal orbitals are localized - no re-canonicalization of internal orbitals
Warning: UsePNO is turned on - no re-canonicalization of internal and virtual orbitals

--------------------------
CLOSED-SHELL FOCK OPERATOR
--------------------------

Restoring SHARK [2] ... ok
Entering RIJCOSX section for the Fock matrix
Trying to retrieve the full J-matrix              ... done
Updating the Fock matrix                          ... done
Making the frozen core Coulomb matrix             ... SHARKdone
Retrieving the full K-matrix                      ... done
Calculating the frozen core K-matrix              ... done
Updating the Fock matrix                          ... done
Time needed for Fock operator              ...            0.454 sec
Reference energy                           ...   -152.118773293

--------------
DLPNO SETTINGS (2015 fully linear scaling implementation)
--------------

TCutMKN:           1.000e-03
TCutPAO:           1.000e-03
TCutPNO:           1.000e-06
TCutPNOSingles:    3.000e-08
TCutEN:            9.700e-01
TCutPAOExt:        1.000e-01
TCutPairs:         1.000e-05
TCutPre:           1.000e-07
TCutOSV:           1.000e-06
TCutDOij:          1.000e-05
TCutDO:            5.000e-03
TCutC:             1.000e-04
TCutCPAO:          1.000e-03
TCutCMO:           1.000e-03
TScaleDOMP2PreScr: 2.000e+00
TScaleMKNMP2PreScr:1.000e+01
TScalePNOMP2PreScr:1.000e+00
PAO overlap thresh 1.000e-08
Using PNOs for Singles Fock computation
Use new domains
Use fully linear algorithm
TCutTNO:           1.000e-09
TCutMP2Pairs:      1.000e-06
TCutDOStrong:      1.000e-02
TCutDOWeak:        2.000e-02
TCutMKNStrong:     1.000e-02
TCutMKNWeak:       1.000e-01
NTCutTNO:          1

--------------------------
Mulliken population of the LMOs            ... ok
Performing proximity check                 ... 
 found 1 problematic atoms
   => In all likelyhood your results will be entirely fine!
   => In case you don't want to trust it, decrease TCutMKN to below 0.00060311.
   => but note that this is probably not necessary but will increase execution time
Calculating differential overlap integrals ... ok

--------------------------
ELECTRON PAIR PRESCREENING
--------------------------

Dipole-based pair screening          .... used

   TCutDOij = 1.000000e-05
   TCutPre  = 1.000000e-07
   .... Finished loop over pairs
Total time spent in the prescreening                  ...     0.000 sec
Time for pair-prescreening                            ...     0.000 sec
Time for pairlist organization                        ...     0.000 sec
Number of pairs skipped by pre-screening              ... 0
sum of pair energies estimated for screened out pairs ...       0.000000000000 Eh
Thresholds for map construction and integral transformation for crude MP2:
   TCutMKN                    ...     1.0e-02
   TCutDO                     ...     1.0e-02
   TCutPairs                  ...     1.0e-05
   TCutPNO_CrudeMP2           ...     1.0e-06
   TCutPNOSingles_CrudeMP2    ...     3.0e-08
--------------------------------
LOCAL RI TRANSFORMATION (IAVPAO)
--------------------------------

Orbital window:       2 to 9
Number of PAOs:     184
Basis functions:    184 (64 shells)
Aux. functions:    1000 (248 shells)
Use SHARK:           on

Processing maps (0.0 sec)
Average map sizes:
   Aux shells -> MOs               8.0
   Aux shells -> PAOs            184.0
   MOs        -> AO shells        60.5
   PAOs       -> AO shells        64.0

Calculating integrals (0.1 sec, 11.242 MB)
Sorting integrals (0.0 sec, 11.231 MB)
Total time for the integral transformation: 0.1 sec
--------------------------------
INITIAL GUESS AND PNO GENERATION
--------------------------------

Populations of internal orbitals onto Fragments:
   2:      1.004    0.000  assigned to fragment   1
   3:      1.007    0.000  assigned to fragment   1
   4:      0.000    1.004  assigned to fragment   2
   5:      0.000    1.007  assigned to fragment   2
   6:      1.000    0.000  assigned to fragment   1
   7:      1.000    0.000  assigned to fragment   1
   8:      0.000    1.000  assigned to fragment   2
   9:      0.000    1.000  assigned to fragment   2

Summary assignment:
   4 orbitals assigned to fragment   1
   4 orbitals assigned to fragment   2

PNO truncation parameters                   .... 
    PAOOverlapThresh   =        1.000e-08

    TCutPairs          =        1.000e-05
    TCutPNO            =        1.000e-06
    TCutPNOSingles     =        3.000e-08
    TCutMP2Pairs       =        1.000e-06
    TCutMKN            =        1.000e-02
    TCutDO             =        1.000e-02

Pair selection                          .... not used
Type of local MP2 treatment                 .... semi-local MP2
Strategy for PNO selection                  .... occupation number selection
Pair density normalization                  .... MP2 norm
Spin component scaling                      .... not used

   .... Finished loop over pairs
Making pair pair interaction lists          ... 
Pair pair interaction statistics
Nr. of pairs:                        20
Nr. of Singles:                       8
Average (per pair domain)               (Total):
Atoms:                              4.1 (6)
PNOs:                               4.0
PAOs:                  117.3 (184)
Aux functions:                    365.6 (1000)
AuxAtoms:                           1.8 (6)
EXT1 basis functions:             138.0 (184)
Interacting Pairs:                  2.0 (20)
Interacting Pairs - Singles:        7.4 (8)
Average (per Single domain):
Atoms (Singles):                    3.8 (6)
PNOs (Singles):                    61.0
Basis functions (Singles):        109.2 (184)
Interacting Singles - Singles:      7.0 (8)
Interacting Singles - Pairs:       18.5 (20)
done

                       ===========================
                         20 OF   36 PAIRS ARE KEPT CCSD PAIRS
                          6 OF   36 PAIRS ARE KEPT MP2 PAIRS FOR (T)
                         10 OF   36 PAIRS ARE SKIPPED
                       ===========================

Total time spent in the initial guess                 ...     0.082 sec
Pair domain construction                              ...     0.000 sec
Time for calculating MP2 Guess in PAOs                ...     0.018 sec
     Time for Local metric generation                 ...     0.000 sec
     Time for Local Kij generation                    ...     0.008 sec
     Time for Local MP2 calculation                   ...     0.000 sec
     Time for LMP2 iterations                         ...     0.000 sec
          prep and other time                         ...     0.000 sec
          Time for sigma                              ...     0.000 sec (    0.000 sec in k-loop)
          Time for DIIS                               ...     0.000 sec
          Time for Update                             ...     0.000 sec
      Time for LMP2 I/O                               ...     0.000 sec
      Time for Initial PNO                            ...     0.000 sec
Time for generating PNOs                              ...     0.001 sec
Time for pairlist organization                        ...     0.000 sec
Time for pair-pair interaction organization           ...     0.001 sec
Size of the domain VM**-1/2 file                      ...         0 MB
SL-MP2 correlation energy (all non-screened pairs)    ...      -0.522620754064 Eh

Initial PNO correlation energy                        ...      -0.521595114853 Eh
sum of pair energies prescreened and skipped MP2 pairs...      -0.000028496357 Eh
sum of pair energies of crude MP2 skipped pairs only  ...       0.000000000000 Eh
sum of MP2 pair energies for pairs that were not kept ...      -0.000059635598 Eh
sum of PNO error estimates for the kept pairs         ...      -0.000966003613 Eh
                                                          --------------------
sum of all corrections                                         -0.001025639211
Initial total correlation energy                               -0.522620754064
Thresholds for map construction and integral transformation for fine MP2 and CCSD(T) calculation:
   TCutMKN   ...     1.0e-03
   TCutDO    ...     5.0e-03
   TCutPairs ...     1.0e-05
   TCutCMO   ...     1.0e-03
   TCutCPAO  ...     1.0e-03

Thresholds for map construction and integral transformation for strong Triples:
   TCutMKN   ...     1.0e-02
   TCutDO    ...     1.0e-02
   TCutCMO   ...     1.0e-03
   TCutCPAO  ...     1.0e-03

Thresholds for map construction and integral transformation for weak Triples:
   TCutMKN   ...     1.0e-01
   TCutDO    ...     2.0e-02
   TCutCMO   ...     1.0e-03
   TCutCPAO  ...     1.0e-03

--------------------------------
LOCAL RI TRANSFORMATION (IAVPAO)
--------------------------------

Orbital window:       2 to 9
Number of PAOs:     184
Basis functions:    184 (64 shells)
Aux. functions:    1000 (248 shells)
Use SHARK:           on

Processing maps (0.0 sec)
Average map sizes:
   Aux shells -> MOs               6.9
   Aux shells -> PAOs            184.0
   MOs        -> AO shells        60.5
   PAOs       -> AO shells        64.0

Calculating integrals (0.1 sec, 9.681 MB)
Sorting integrals (0.0 sec, 9.670 MB)
Total time for the integral transformation: 0.1 sec
--------------------------------
INITIAL GUESS AND PNO GENERATION
--------------------------------

Populations of internal orbitals onto Fragments:
   2:      1.004    0.000  assigned to fragment   1
   3:      1.007    0.000  assigned to fragment   1
   4:      0.000    1.004  assigned to fragment   2
   5:      0.000    1.007  assigned to fragment   2
   6:      1.000    0.000  assigned to fragment   1
   7:      1.000    0.000  assigned to fragment   1
   8:      0.000    1.000  assigned to fragment   2
   9:      0.000    1.000  assigned to fragment   2

Summary assignment:
   4 orbitals assigned to fragment   1
   4 orbitals assigned to fragment   2

PNO truncation parameters                   .... 
    ScaleTCutPNO       =        1.000e-02
    PAOOverlapThresh   =        1.000e-08

    TCutPairs          =        1.000e-05
    TCutPNO            =        1.000e-06
    TCutPNOSingles     =        3.000e-08
    TCutMP2Pairs       =        1.000e-06
    TCutMKN            =        1.000e-03
    TCutDO             =        5.000e-03

Pair selection                          .... not used
Type of local MP2 treatment                 .... full local PMP2
Strategy for PNO selection                  .... occupation number selection
Pair density normalization                  .... MP2 norm
Spin component scaling                      .... not used

PASS-1: Formation of initial guess LMP2 amplitudes
Initial amplitudes guess done. Entering LMP2 iteration loop:
   Max. no of iterations          ...  50
   Energy convergence tolerance   ...    1.0e-07
   Residual convergence tolerance ...    5.0e-07
   Fock matrix cutoff             ...    1.0e-05 Eh
   DIIS convergence acceleration parameters:
        Max # vectors in DIIS     ... 7
        Start iteration of DIIS   ... 0
        Levelshift                ... 2.000e-01
        Damping factor 1          ... 5.000e-01
        Damping factor 2          ... 1.000e+00
   L-MP2 PNO cut-off              ...   1.0e-08
   L-MP2 PNO cut-off (core)       ...   1.0e-10
236 of 364 terms in k-loop evaluated.

                           *** Turning on DIIS ***
LMP2-Iter=   0:  ELMP2= -0.532556309176  DE=   1.0e-02 RMAX=   5.5e-03
LMP2-Iter=   1:  ELMP2= -0.537957046646  DE=   5.4e-03 RMAX=   2.9e-03
LMP2-Iter=   2:  ELMP2= -0.538745368868  DE=   7.9e-04 RMAX=   5.5e-04
LMP2-Iter=   3:  ELMP2= -0.538848442117  DE=   1.0e-04 RMAX=   1.6e-04
LMP2-Iter=   4:  ELMP2= -0.538856102083  DE=   7.7e-06 RMAX=   1.9e-05
LMP2-Iter=   5:  ELMP2= -0.538856021462  DE=   8.1e-08 RMAX=   4.9e-06
LMP2-Iter=   6:  ELMP2= -0.538855993648  DE=   2.8e-08 RMAX=   4.2e-07
LMP2-Iter=   7:  ELMP2= -0.538855987179  DE=   6.5e-09 RMAX=   1.0e-07
LMP2-Iter=   8:  ELMP2= -0.538855989841  DE=   2.7e-09 RMAX=   1.2e-08 => CONVERGED
PASS-2: Formation of Pair natural orbitals
   .... Finished loop over pairs
Process  1:   (    3,     3):  99.918625400373 %
Process  1:   (    4,     2):  64.934158132123 %
Process  1:   (    3):  99.998255583432 % (IJ)
Process  2:   (    4,     3):  76.865373217627 %
Process  2:   (    4,     4):  99.918651603877 %
Process  2:   (    4):  99.998247810456 % (IJ)
Process  3:   (    5,     2):  76.866182060216 %
Process  3:   (    5,     3):  81.709850532260 %
Process  4:   (    5,     4):  99.947218031592 %
Process  4:   (    5,     5):  99.918608245060 %
Process  4:   (    5):  99.998255743955 % (IJ)
Process  5:   (    6,     2):  99.935664624226 %
Process  5:   (    6,     3):  99.935590935022 %
Process  6:   (    6,     4):  73.926209084269 %
Process  6:   (    6,     6):  99.949331422387 %
Process  6:   (    6):  99.998192893463 % (IJ)
Process  7:   (    7,     2):  99.936503730856 %
Process  7:   (    7,     3):  99.936485956544 %
Process  8:   (    7,     6):  99.916593053926 %
Process  8:   (    7,     7):  99.942483864123 %
Process  8:   (    7):  99.998310393605 % (IJ)
Process  9:   (    8,     4):  99.936508893674 %
Process  9:   (    8,     5):  99.936483088547 %
Process 10:   (    8,     8):  99.942486572380 %
Process 10:   (    9,     2):  73.926409688662 %
Process 10:   (    8):  99.998310136274 % (IJ)
Process 11:   (    9,     4):  99.935620242461 %
Process 11:   (    9,     5):  99.935597869405 %
Process 12:   (    9,     8):  99.916595799409 %
Process 12:   (    9,     9):  99.949336200958 %
Process 12:   (    9):  99.998193216687 % (IJ)

  - Occupation number analysis for DOUBLES-pairs:

   Orbital Indices     % trace(D) 
  -----------------------------------
Process  0:   (    2,     2):  99.911552468175 %
Process  0:   (    3,     2):  99.947236536335 %

  - Occupation number analysis for SINGLES-pairs:

   Orbital Index       % trace(D) 
  -----------------------------------
Process  0:   (    2):  99.998245680763 % (IJ)

 PNO Occupation Number Statistics: 
  | Av. % of trace(Dij) retained        ...  94.111359894403
  | sigma^2 in % of trace(Dij) retained ...   1.19e+02
  | Av. % of trace(Di) retained         ...  99.998251432329
  | sigma^2 in % of trace(Di) retained  ...   1.73e-09
 Distributions of % trace(Dij) recovered:
  |       >= 99.9  ...    20 ( 76.9 % of all pairs)
  |   [60.0, 70.0) ...     1 (  3.8 % of all pairs)
  |   [70.0, 80.0) ...     4 ( 15.4 % of all pairs)
  |   [80.0, 90.0) ...     1 (  3.8 % of all pairs)
 Distributions of % trace(Di) recovered :
  |       >= 99.9  ...     8 (100.0 % of all I-pairs )

Making pair pair interaction lists          ... 
Pair pair interaction statistics
Nr. of pairs:                        20
Nr. of Singles:                       8
Average (per pair domain)               (Total):
Atoms:                              6.0 (6)
PNOs:                               4.0
PAOs:                  184.0 (184)
Aux functions:                    494.4 (1000)
AuxAtoms:                           3.0 (6)
EXT1 basis functions:             184.0 (184)
Interacting Pairs:                  2.0 (20)
Interacting Pairs - Singles:        8.0 (8)
Average (per Single domain):
Atoms (Singles):                    6.0 (6)
PNOs (Singles):                    61.9
Basis functions (Singles):        184.0 (184)
Interacting Singles - Singles:      8.0 (8)
Interacting Singles - Pairs:       20.0 (20)
done

                       ===========================
                         20 OF   26 PAIRS ARE KEPT
                       ===========================

Total time spent in the initial guess                 ...     0.261 sec
Pair domain construction                              ...     0.000 sec
Time for calculating MP2 Guess in PAOs                ...     0.047 sec
     Time for Local metric generation                 ...     0.000 sec
     Time for Local Kij generation                    ...     0.023 sec
     Time for Local MP2 calculation                   ...     0.001 sec
     Time for LMP2 iterations                         ...     0.112 sec
          prep and other time                         ...     0.002 sec
          Time for sigma                              ...     0.033 sec (    0.027 sec in k-loop)
          Time for DIIS                               ...     0.060 sec
          Time for Update                             ...     0.003 sec
      Time for LMP2 I/O                               ...     4.381 sec
      Time for Initial PNO                            ...     0.011 sec
Time for generating PNOs                              ...     0.001 sec
Time for pairlist organization                        ...     0.000 sec
Time for pair-pair interaction organization           ...     0.001 sec
Size of the domain VM**-1/2 file                      ...        92 MB
Size of the P2V_red file                              ...         1 MB
L-MP2 correlation energy (all non-screened pairs)     ...      -0.538855989841 Eh
L-MP2 PNO error correction                            ...      -0.000004459188 Eh
                                                          --------------------
Initial total L-MP2 energy (non-screened pairs)       ...      -0.538860449029 Eh

Initial PNO correlation energy                        ...      -0.537835656385 Eh
sum of pair energies estimated for screened out pairs ...      -0.000028496357 Eh
sum of MP2 pair energies for pairs that were not kept ...      -0.000033515210 Eh
sum of PNO error estimates for the kept pairs         ...      -0.000991277433 Eh
                                                          --------------------
sum of all corrections                                         -0.001053289001
Initial total correlation energy                               -0.538888945386
Thresholds for map construction and integral transformation for fine MP2 and CCSD(T) calculation:
   TCutMKN   ...     1.0e-03
   TCutDO    ...     5.0e-03
   TCutPairs ...     1.0e-05
   TCutCMO   ...     1.0e-03
   TCutCPAO  ...     1.0e-03

Time for aux screen maps:            0.001
Time for maps after fine MP2:            0.003
-----------------------------
LOCAL RI TRANSFORMATION (IJV)
-----------------------------

Orbital window:       2 to 9
Basis functions:    184 (64 shells)
Aux. functions:    1000 (248 shells)
Use SHARK:           on

Processing maps (0.0 sec)
Average map sizes:
   Aux shells -> MOs(i)            4.0
   Aux shells -> MOs(j)            8.0
   MOs        -> AO shells        60.5

Calculating integrals (0.1 sec, 0.256 MB)
Sorting integrals (0.0 sec, 0.244 MB)
Total time for the integral transformation: 0.1 sec
--------------------------------
LOCAL RI TRANSFORMATION (VABPAO)
--------------------------------

Number of PAOs:     184
Basis functions:    184 (64 shells)
Aux. functions:    1000 (248 shells)
Use SHARK:           on

Processing maps (0.0 sec)
Average map sizes:
   Aux shells -> PAOs            184.0
   PAOs       -> AO shells        64.0

Calculating integrals (0.2 sec, 258.312 MB)
Finished
Precomputing pair/pair interactions        ... 

-------------------------------------
Pair Pair Term precalculation with     
RI-(ij|mn) and (im|jn) transformation  
ON THE FLY                             
-------------------------------------

Max core memory to be used                    ...   4000 MB
Number of batches needed                      ...      1 
Average Memory used per batch                 ...      0 MB
Pair Pair terms per batch                     ...      0 
Total number of pairs                         ...     20 
Memory needed for all IJPairs                 ...      0 MB
   IBatch   1 (of   1)              ... done (    0.532 sec)
Total EXT                           ...           0.532 sec

Detailed timings: 
Reading/generating VMAT                    ...          0.002 sec
Reading 3-index integrals                  ...          0.055 sec
Sorting of data                            ...          0.164 sec
Get Pair1 ...          0.000 sec
Get Pair2 ...          0.000 sec
Get Pair3 ...          0.000 sec
Get Pair4 ...          0.000 sec
Get Pair5 ...          0.000 sec
Get Pair6 ...          0.000 sec
Orthogonalization of the 3-index integrals ...          0.014 sec
Multipl. of 3-index integrals              ...          0.261 sec
GetNewMat              ...          0.005 sec
Generating IJMN (orthog. + mult.)          ...          0.447 sec
Generating IJMN (orthog. + mult.) 1         ...          0.414 sec
Generating IJMN (orthog. + mult.) 2         ...          0.000 sec
Generating IJMN (orthog. + mult.) 3         ...          0.014 sec
Generating IJMN (orthog. + mult.) 4         ...          0.020 sec
Generating IMJN (orthog. + mult.)          ...          0.029 sec

done (    0.595 sec)
---------------------
RI-PNO TRANSFORMATION
---------------------

Total Number of PNOs                   ...   819
Average number of PNOs per pair        ...    40
Maximal number of PNOs per pair        ...    43
   #pairs with  1 -  5 PNOs   :    0
   #pairs with  6 - 10 PNOs   :    0
   #pairs with 11 - 15 PNOs   :    0
   #pairs with 16 - 20 PNOs   :    0
   #pairs with 21 - 25 PNOs   :    0
   #pairs with 26 - 30 PNOs   :    0
   #pairs with 31 - 35 PNOs   :    0
   #pairs with 36 - 40 PNOs   :    8
   #pairs with 41 - 45 PNOs   :   12
   #pairs with 46 - 50 PNOs   :    0

Generation of (ij|ab)[P] integrals            ... on
Generation of (ia|bc)[P],(ja|bc)[P] integrals ... on
Storage of 3 and 4 external integrals         ... on
Generation of ALL (ka|bc)[P] integrals        ... on
Keep RI integrals in memory                   ... off
PNO Integral generation
Max core memory to be used                    ...   4000 MB
Number of batches needed                      ...      1 
Memory available for IJPairs                  ...   3941 MB
Memory needed per IJPair                      ...     12 MB
Total number of pairs                         ...     20 
Memory needed for all IJPairs                 ...    231 MB

Ibatch:  1 (of  1)
Starting 2-4 index PNO integral generation ... done

Timings:
Total PNO integral transformation time     ...          0.614 sec
Reading/generating VMAT                    ...          0.002 sec
[...]
                         ----------------------  ----------------------  
                                -0.282835728381        -0.282832126818  sum=       -0.565667855199


Interaction correlation for Fragments   2 and   1:
--------------------------------------------------
Inter strong pairs                0.000000000000 (    0.000 kcal/mol)
Inter triples                     0.000000000000 (    0.000 kcal/mol)
Inter weak pairs                 -0.000033515210 (   -0.021 kcal/mol)
                          ----------------------
Total interaction                -0.000033515210 (   -0.021 kcal/mol)



Sum of INTRA-fragment correlation energies  =        -0.565667855199
Sum of INTER-fragment correlation energies  =        -0.000033515210
                                              ---------------------
Total correlation energy                    =        -0.565701370409


--------------------------------------------
INTER- vs INTRA-FRAGMENT TOTAL ENERGIES (Eh)
--------------------------------------------

                                   Fragment   1            Fragment   2            
                         ----------------------  ----------------------  
Intra REF. energy              -76.059053490751       -76.059052143648  sum=     -152.118105634399
Intra Correlation energy        -0.282835728381        -0.282832126818  sum=       -0.565667855199
                         ----------------------  ----------------------  
                               -76.341889219132       -76.341884270466  sum=     -152.683773489598


Interaction of Fragments   2 and   1:
-------------------------------------
Interfragment reference          -0.000667658488 (   -0.419 kcal/mol)
Interfragment correlation        -0.000033515210 (   -0.021 kcal/mol)
                          ----------------------
Total interaction                -0.000701173698 (   -0.440 kcal/mol)


Sum of INTRA-fragment total energies        =      -152.683773489598
Sum of INTER-fragment total energies        =        -0.000701173698
                                              ---------------------
Total energy                                =      -152.684474663296


---------------------------------------------
DECOMPOSITION OF CCSD STRONG PAIRS INTO      
    DOUBLE EXCITATION TYPES (Eh)             
---------------------------------------------

Foster-Boys localization is used for localizing PNOs

Decomposition of the intra-fragment strong pairs energies .. 

FRAGMENT    1 =  -0.273597513909 Eh ...   

----------------------------------------------------------------------------------------------------------------------------------------
    i   j  type :        EP         (%)         Direct-            Single             Double         PNO in Mulliken                   
                                           Double Excitation     Charge-Transfer    Charge-Transfer  population range                   
                                                                                                      <0.7   >0.7                       
----------------------------------------------------------------------------------------------------------------------------------------
    6     6  :     -0.031961260 ( 11.68)      -0.031961260      0.000000000      0.000000000       0      40
    7     7  :     -0.031560851 ( 11.54)      -0.031560851      0.000000000      0.000000000       0      39
    3     2  :     -0.029642607 ( 10.83)      -0.029642607      0.000000000      0.000000000       0      43
    6     2  :     -0.026383145 (  9.64)      -0.026383145      0.000000000      0.000000000       0      43
    6     3  :     -0.026373589 (  9.64)      -0.026373589      0.000000000      0.000000000       0      43
    2     2  :     -0.026331091 (  9.62)      -0.026331091      0.000000000      0.000000000       0      36
    3     3  :     -0.026330628 (  9.62)      -0.026330628      0.000000000      0.000000000       0      37
    7     2  :     -0.026244147 (  9.59)      -0.026244147      0.000000000      0.000000000       0      43
    7     3  :     -0.026233833 (  9.59)      -0.026233833      0.000000000      0.000000000       0      43
    7     6  :     -0.022536363 (  8.24)      -0.022536363      0.000000000      0.000000000       0      42

Overall summary of excitation mechanisms for this fragment:
  Total direct double excitations (i->a(ij))(j->b(ij))                      -0.273597514 (100.000 per cent)
  Total single charge-transfer    (i->a(ij))(j->b(X)) & (i->a(X))(j->b(ij))  0.000000000 (-0.000 per cent)
  Total double charge transfer    (i->a(X))(j->b(X))                         0.000000000 (-0.000 per cent)
                                                       -----------------------------
  Sum                                                  -0.273597514
  Consistency check                                    -0.273597514
 done 
 
FRAGMENT    2 =  -0.273600534065 Eh ...   

----------------------------------------------------------------------------------------------------------------------------------------
    i   j  type :        EP         (%)         Direct-            Single             Double         PNO in Mulliken                   
                                           Double Excitation     Charge-Transfer    Charge-Transfer  population range                   
                                                                                                      <0.7   >0.7                       
----------------------------------------------------------------------------------------------------------------------------------------
    9     9  :     -0.031961289 ( 11.68)      -0.031961289      0.000000000      0.000000000       0      40
    8     8  :     -0.031561054 ( 11.54)      -0.031561054      0.000000000      0.000000000       0      39
    5     4  :     -0.029644781 ( 10.84)      -0.029644781      0.000000000      0.000000000       0      43
    9     4  :     -0.026385454 (  9.64)      -0.026385454      0.000000000      0.000000000       0      43
    9     5  :     -0.026371013 (  9.64)      -0.026371013      0.000000000      0.000000000       0      43
    4     4  :     -0.026333105 (  9.62)      -0.026333105      0.000000000      0.000000000       0      37
    5     5  :     -0.026329962 (  9.62)      -0.026329962      0.000000000      0.000000000       0      37
    8     4  :     -0.026245946 (  9.59)      -0.026245946      0.000000000      0.000000000       0      43
    8     5  :     -0.026232373 (  9.59)      -0.026232373      0.000000000      0.000000000       0      43
    9     8  :     -0.022535558 (  8.24)      -0.022535558      0.000000000      0.000000000       0      42

Overall summary of excitation mechanisms for this fragment:
  Total direct double excitations (i->a(ij))(j->b(ij))                      -0.273600534 (100.000 per cent)
  Total single charge-transfer    (i->a(ij))(j->b(X)) & (i->a(X))(j->b(ij))  0.000000000 (-0.000 per cent)
  Total double charge transfer    (i->a(X))(j->b(X))                         0.000000000 (-0.000 per cent)
                                                       -----------------------------
  Sum                                                  -0.273600534
  Consistency check                                    -0.273600534
 done 
 
 

Decomposition of the inter-fragments strong pairs energies .. 
FRAGMENTS    2,1 =   0.000000000000 Eh ...   

 
Summary Strong Pairs Energy Decomposition    
 
Intra fragment contributions: 
INTRA Fragment 1                       -0.273597514 
INTRA Fragment 2                       -0.273600534 

Charge transfer contributions: 
Charge Transfer 1 to 2                  0.000000000 
Charge Transfer 2 to 1                  0.000000000 

Dispersion contributions: 
Dispersion  2,1                         0.000000000 

Singles contributions:                   
Singles energy                         -0.000002040 
 

------------------------------------------------- 
FINAL SUMMARY DLPNO-CCSD ENERGY DECOMPOSITION (Eh)
------------------------------------------------- 
 
Intrafragment REF. energy:                   
Intra fragment   1 (REF.)              -76.059053491     
Intra fragment   2 (REF.)              -76.059052144     

Interaction of fragments  2 and  1:  
Electrostatics (REF.)                  -0.000661101 
Exchange (REF.)                        -0.000006558 
Dispersion (strong pairs)               0.000000000 
Dispersion (weak pairs)                -0.000033515 

Sum of non dispersive correlation terms: 
Non dispersion (strong pairs)          -0.547200088  
Non dispersion (weak pairs)            -0.000991277  

#Time for LED analysis ..       0.9 (sec)



--------------------------------------------------------------------------------
                                    TIMINGS
--------------------------------------------------------------------------------


Total execution time                   ...        9.531 sec

Localization of occupied MO's          ...        0.251 sec (  2.6%)
Fock Matrix Formation                  ...        0.454 sec (  4.8%)
Global overlap, Fock, MKN matrices     ...        0.174 sec (  1.8%)
Differential overlap integrals         ...        0.618 sec (  6.5%)
Organizing maps                        ...        0.007 sec (  0.1%)
RI 3-index integral generations        ...        0.596 sec (  6.3%)
RI-PNO integral transformation         ...        1.231 sec ( 12.9%)
Initial Guess                          ...        0.348 sec (  3.7%)
DIIS Solver                            ...        0.116 sec (  1.2%)
State Vector Update                    ...        0.001 sec (  0.0%)
Sigma-vector construction              ...        3.486 sec ( 36.6%)
  <D|H|D>(0-ext)                       ...        0.020 sec (  0.6% of sigma)
  <D|H|D>(2-ext Fock)                  ...        0.001 sec (  0.0% of sigma)
  <D|H|D>(2-ext)                       ...        0.101 sec (  2.9% of sigma)
  <D|H|D>(4-ext)                       ...        0.452 sec ( 13.0% of sigma)
  <D|H|D>(4-ext-corr)                  ...        1.516 sec ( 43.5% of sigma)
  CCSD doubles correction              ...        0.003 sec (  0.1% of sigma)
  <S|H|S>                              ...        0.066 sec (  1.9% of sigma)
  <S|H|D>(1-ext)                       ...        0.004 sec (  0.1% of sigma)
  <S|H|D>(3-ext)                       ...        0.015 sec (  0.4% of sigma)
  Fock-dressing                        ...        0.168 sec (  4.8% of sigma)
  Singles amplitudes                   ...        0.030 sec (  0.9% of sigma)
  (ik|jl)-dressing                     ...        0.049 sec (  1.4% of sigma)
  (ij|ab),(ia|jb)-dressing             ...        0.268 sec (  7.7% of sigma)
Total Time for computing (T)           ...        1.318 sec ( 13.8% of ALL)
Local Energy Decomposition             ...        0.880 sec (  9.2% of ALL)


Maximum memory used throughout the entire MDCI-calculation: 176.6 MB

-------------------------   --------------------
FINAL SINGLE POINT ENERGY      -152.684503159468
-------------------------   --------------------


                            ***************************************
                            *     ORCA property calculations      *
                            ***************************************


  WARNING: The energy has been calculated at the MDCI level but the densities
           used in the property calculations are still SCF densities
           MDCI response densities have not been calculated 
           use %mdci Density linearized end
           or  %mdci Density unrelaxed end
           or  %mdci Density orbopt end

                                    ---------------------
                                    Active property flags
                                    ---------------------
   (+) Dipole Moment


------------------------------------------------------------------------------
                       ORCA ELECTRIC PROPERTIES CALCULATION
------------------------------------------------------------------------------

Dipole Moment Calculation                       ... on
Quadrupole Moment Calculation                   ... off
Polarizability Calculation                      ... off
GBWName                                         ... frag52.gbw
Electron density                                ... frag52.scfp
The origin for moment calculation is the CENTER OF MASS  = ( 1.547871,  0.577983 -1.263129)

-------------
DIPOLE MOMENT
-------------
                                X             Y             Z
Electronic contribution:     -0.00276       0.12729       0.18923
Nuclear contribution   :      0.01534      -0.61835      -0.92001
                        -----------------------------------------
Total Dipole Moment    :      0.01258      -0.49106      -0.73078
                        -----------------------------------------
Magnitude (a.u.)       :      0.88053
Magnitude (Debye)      :      2.23814



--------------------
Rotational spectrum 
--------------------
 
Rotational constants in cm-1:     5.111632     0.073234     0.073046 
Rotational constants in MHz : 153242.875058  2195.499035  2189.867345 

 Dipole components along the rotational axes: 
x,y,z [a.u.] :    -0.000126    -0.880533    -0.000363 
x,y,z [Debye]:    -0.000321    -2.238138    -0.000923 

 

--------------------------------
SUGGESTED CITATIONS FOR THIS RUN
--------------------------------

Below you find a list of papers that are relevant to this ORCA run
We neither can nor want to force you to cite these paper, but we appreciate if you do
You receive ORCA, which is the product of a lot of hard work by many enthusiastic individuals, for free
The *only* thing we kindly ask in return is that you cite our papers,
We deeply appreciate it, if you show your appreciation for ORCA but *not* just citing the generic ORCA reference.

Please note that relegating all ORCA citations to the supporting information does *not* help us.
SI sections are not index - citations you put there will not count into our citation statistics
But we need these citations in order to attract the funding ressources that allow us to do what we are doing

Therefore, please consider citing at least a few of the papers listed below, if you are a happy ORCA user

In addition to the list printed below, the program has created the file frag52.bibtex that contains the list in bibtex format
In this format, you can import it easily in all common literature databanks and citation aid programs


List of essential papers. We consider these as the minimum necessary citations

  1. Neese,F.
     Software update: the ORCA program system, version 5.0
     WIRES Comput. Molec. Sci., 2022 12(1)e1606
     doi.org/10.1002/wcms.1606

List of papers to cite with high priority. The work reported in these papers was absolutely
necessary for this run to complete.
Our perspective: the developers of density functionals and basis sets usually get cited in chemistry papers
Good! But without the algorithms to do something with them, the functionals or basis sets would not do anything.
Hence, in our opinion, the algorithm design and method developments papers are equally worthy of getting cited

  1. Neese,F.
     An improvement of the resolution of the identity approximation for the formation of the Coulomb matrix
     J. Comp. Chem., 2003 24(14)1740-1747
     doi.org/10.1002/jcc.10318
  2. Neese,F.; Wennmohs,F.; Hansen,A.; Becker,U.
     Efficient, approximate and parallel Hartree-Fock and hybrid DFT calculations. A 'chain-of-spheres' algorithm for the Hartree-Fock exchange
     Chem. Phys., 2009 356(1-3)98-109
     doi.org/10.1016/j.chemphys.2008.10.036
  3. Neese,F.; Hansen,A.; Liakos,D.G.
     Efficient and accurate approximations to the local coupled cluster singles doubles method using a truncated pair natural orbital basis
     J. Chem. Phys., 2009 131 064103
     doi.org/10.1063/1.3173827
  4. Neese,F.; Wennmohs,F.; Hansen,A.
     Efficient and accurate local approximations to coupled-electron pair approaches: An attempt to revive the pair natural orbital method
     J. Chem. Phys., 2009 130 114108
     doi.org/10.1063/1.3086717
  5. Riplinger,C.; Neese,F.
     An efficient and near linear scaling pair natural orbital based local coupled cluster method
     J. Chem. Phys., 2013 138(3)Art. No. 034106
     doi.org/10.1063/1.4773581
  6. Riplinger,C.; Sandhoefer,B.; Hansen,A.; Neese,F.
     Natural triple excitations in local coupled cluster calculations with pair natural orbitals
     J. Chem. Phys., 2013 139(13)Art. No. 134101
     doi.org/10.1063/1.4821834
  7. Riplinger,C.; Pinski,P.; Becker,U.; Valeev,E.F.; Neese,F.
     Sparse maps-A systematic infrastructure for reduced-scaling electronic structure methods. II. Linear scaling domain based pair natural orbital coupled cluster theory
     J. Chem. Phys., 2016 144 
     doi.org/10.1063/1.4939030
  8. Schneider,W.B.; Bistoni,G.; Sparta,M.; Saitow,M.; Riplinger,C.; Auer,A.A.; Neese,F.
     Decomposition of Intermolecular Interaction Energies within the Local Pair Natural Orbital Coupled Cluster Framework
     J. Theo. Comp. Chem., 2016 12 4778-4792
     doi.org/10.1021/acs.jctc.6b00523
  9. Bistoni,G.; Riplinger,C.; Minenkov,Y.; Cavallo,L.; Auer,A.A.; Neese,F.
     Treating Subvalence Correlation Effects in Domain Based Pair Natural Orbital Coupled Cluster Calculations: An Out-of-the-Box Approach
     J. Theo. Comp. Chem., 2017 13 3220-3227
     doi.org/10.1021/acs.jctc.7b00352
 10. Guo,Y.; Riplinger,C.; Becker,U.; Liakos,D.G.; Minenkov,Y.; Cavallo,L.; Neese,F.
     Communication: An improved linear scaling perturbative triples correction for the domain based local pair-natural orbital based singles and doubles coupled cluster method DLPNO-CCSD(T)
     J. Chem. Phys., 2018 148 5
     doi.org/10.1063/1.5011798
 11. Helmich-Paris,B.; de Souza,B.; Neese,F.; Izsk,R.
     An improved chain of spheres for exchange algorithm
     J. Chem. Phys., 2021 155 104109
     doi.org/doi: 10.1063/5.0058766.

List of suggested additional citations. These are papers that are important in the 'surrounding' of 
of this run, or papers that preceded the highly important papers. If you like your results we are grateful for a citation.

  1. Izsak,R.; Neese,F.
     An overlap fitted chain of spheres exchange method
     J. Chem. Phys., 2011 135 144105
     doi.org/10.1063/1.3646921
  2. Izsak,R.; Hansen,A.; Neese,F.
     The resolution of identity and chain of spheres approximations for the LPNO-CCSD singles Fock term
     Molec. Phys., 2012 110 2413-2417
     doi.org/10.1080/00268976.2012.687466
  3. Neese,F.
     The ORCA program system
     WIRES Comput. Molec. Sci., 2012 2(1)73-78
     doi.org/10.1002/wcms.81
  4. Izsak,R.; Neese,F.; Klopper,W.
     Robust fitting techniques in the chain of spheres approximation to the Fock exchange: The role of the complementary space
     J. Chem. Phys., 2013 139 
     doi.org/10.1063/1.4819264
  5. Neese,F.
     Software update: the ORCA program system, version 4.0
     WIRES Comput. Molec. Sci., 2018 8(1)1-6
     doi.org/10.1002/wcms.1327
  6. Neese,F.; Wennmohs,F.; Becker,U.; Riplinger,C.
     The ORCA quantum chemistry program package
     J. Chem. Phys., 2020 152 Art. No. L224108
     doi.org/10.1063/5.0004608
  7. Bistoni,G.
     Finding chemical concepts in the Hilbert space: Coupled cluster analyses of noncovalent interactions
     WIRES Comput. Molec. Sci., 2020 10(3)e1442
     doi.org/10.1002/wcms.1442

Timings for individual modules:

Sum of individual times         ...       14.925 sec (=   0.249 min)
GTO integral calculation        ...        0.945 sec (=   0.016 min)   6.3 %
SCF iterations                  ...        3.945 sec (=   0.066 min)  26.4 %
MDCI module                     ...       10.035 sec (=   0.167 min)  67.2 %
                             ****ORCA TERMINATED NORMALLY****
TOTAL RUN TIME: 0 days 0 hours 0 minutes 15 seconds 554 msec