                                 *****************
                                 * O   R   C   A *
                                 *****************

                                            #,                                       
                                            ###                                      
                                            ####                                     
                                            #####                                    
                                            ######                                   
                                           ########,                                 
                                     ,,################,,,,,                         
                               ,,#################################,,                 
                          ,,##########################################,,             
                       ,#########################################, ''#####,          
                    ,#############################################,,   '####,        
                  ,##################################################,,,,####,       
                ,###########''''           ''''###############################       
              ,#####''   ,,,,##########,,,,          '''####'''          '####       
            ,##' ,,,,###########################,,,                        '##       
           ' ,,###''''                  '''############,,,                           
         ,,##''                                '''############,,,,        ,,,,,,###''
      ,#''                                            '''#######################'''  
     '                                                          ''''####''''         
             ,#######,   #######,   ,#######,      ##                                
            ,#'     '#,  ##    ##  ,#'     '#,    #''#        ,####,   ,####,        
            ##       ##  ##   ,#'  ##            #'  '#       #'       #'  '#        
            ##       ##  #######   ##           ,######,      #####,   #    #        
            '#,     ,#'  ##    ##  '#,     ,#' ,#      #,     #,   #   #,  ,#        
             '#######'   ##     ##  '#######'  #'      '#     '####' # '####'.alpha  



                  #######################################################
                  #                        -***-                        #
                  #          Department of theory and spectroscopy      #
                  #    Directorship and core code : Frank Neese         #
                  #        Max Planck Institute fuer Kohlenforschung    #
                  #                Kaiser Wilhelm Platz 1               #
                  #                 D-45470 Muelheim/Ruhr               #
                  #                      Germany                        #
                  #                                                     #
                  #                  All rights reserved                #
                  #                        -***-                        #
                  #######################################################


                         Program Version 6.0  -  CURRENT   -
                                (GIT: $c60f4dedfa$)
                ($2024-01-13 17:22:20 +0100 $)

                  !                     WARNING:                         !
                  !         This is a DEVELOPMENT version                !

                         (BUILD: $So 14. Jan 00:09:15 CET 2024$)


 With contributions from (in alphabetic order):
   Daniel Aravena         : Magnetic Suceptibility
   Michael Atanasov       : Ab Initio Ligand Field Theory (pilot matlab implementation)
   Alexander A. Auer      : GIAO ZORA, VPT2 properties, NMR spectrum
   Ute Becker             : Parallelization
   Giovanni Bistoni       : ED, misc. LED, open-shell LED, HFLD
   Martin Brehm           : Molecular dynamics
   Dmytro Bykov           : SCF Hessian
   Vijay G. Chilkuri      : MRCI spin determinant printing, contributions to CSF-ICE
   Dipayan Datta          : RHF DLPNO-CCSD density
   Achintya Kumar Dutta   : EOM-CC, STEOM-CC
   Dmitry Ganyushin       : Spin-Orbit,Spin-Spin,Magnetic field MRCI
   Miquel Garcia          : C-PCM and meta-GGA Hessian, CCSD/C-PCM, Gaussian charge scheme
   Yang Guo               : DLPNO-NEVPT2, F12-NEVPT2, CIM, IAO-localization
   Andreas Hansen         : Spin unrestricted coupled pair/coupled cluster methods
   Benjamin Helmich-Paris : MC-RPA, TRAH-(SCF,CASSCF), AVAS, COSX integrals, SCF dyn. polar.
   Lee Huntington         : MR-EOM, pCC
   Robert Izsak           : Overlap fitted RIJCOSX, COSX-SCS-MP3, EOM
   Marcus Kettner         : VPT2
   Christian Kollmar      : KDIIS, OOCD, Brueckner-CCSD(T), CCSD density, CASPT2, CASPT2-K, improved NEVPT2
   Simone Kossmann        : Meta GGA functionals, TD-DFT gradient, OOMP2, MP2 Hessian
   Martin Krupicka        : Initial AUTO-CI
   Lucas Lang             : DCDCAS
   Marvin Lechner         : AUTO-CI (C++ implementation), FIC-MRCC
   Dagmar Lenk            : GEPOL surface, SMD
   Dimitrios Liakos       : Extrapolation schemes; Compound Job, initial MDCI parallelization
   Dimitrios Manganas     : Further ROCIS development; embedding schemes
   Dimitrios Pantazis     : SARC Basis sets
   Anastasios Papadopoulos: AUTO-CI, single reference methods and gradients
   Taras Petrenko         : DFT Hessian,TD-DFT gradient, ASA, ECA, R-Raman, ABS, FL, XAS/XES, NRVS
   Peter Pinski           : DLPNO-MP2, DLPNO-MP2 Gradient
   Christoph Reimann      : Effective Core Potentials
   Marius Retegan         : Local ZFS, SOC
   Christoph Riplinger    : Optimizer, TS searches, QM/MM, DLPNO-CCSD(T), (RO)-DLPNO pert. Triples
   Tobias Risthaus        : Range-separated hybrids, TD-DFT gradient, RPA, STAB
   Michael Roemelt        : Original ROCIS implementation
   Masaaki Saitow         : Open-shell DLPNO-CCSD energy and density
   Barbara Sandhoefer     : DKH picture change effects
   Avijit Sen             : IP-ROCIS
   Kantharuban Sivalingam : CASSCF convergence, NEVPT2, FIC-MRCI
   Bernardo de Souza      : ESD, SOC TD-DFT
   Georgi Stoychev        : AutoAux, RI-MP2 NMR, DLPNO-MP2 response
   Willem Van den Heuvel  : Paramagnetic NMR
   Boris Wezisla          : Elementary symmetry handling
   Frank Wennmohs         : Technical directorship


 We gratefully acknowledge several colleagues who have allowed us to
 interface, adapt or use parts of their codes:
   Stefan Grimme, W. Hujo, H. Kruse, P. Pracht,  : VdW corrections, initial TS optimization,
                  C. Bannwarth, S. Ehlert          DFT functionals, gCP, sTDA/sTD-DF
   Ed Valeev, F. Pavosevic, A. Kumar             : LibInt (2-el integral package), F12 methods
   Garnet Chan, S. Sharma, J. Yang, R. Olivares  : DMRG
   Ulf Ekstrom                                   : XCFun DFT Library
   Mihaly Kallay                                 : mrcc  (arbitrary order and MRCC methods)
   Jiri Pittner, Ondrej Demel                    : Mk-CCSD
   Frank Weinhold                                : gennbo (NPA and NBO analysis)
   Christopher J. Cramer and Donald G. Truhlar   : smd solvation model
   Lars Goerigk                                  : TD-DFT with DH, B97 family of functionals
   V. Asgeirsson, H. Jonsson                     : NEB implementation
   FAccTs GmbH                                   : IRC, NEB, NEB-TS, DLPNO-Multilevel, CI-OPT
                                                   MM, QMMM, 2- and 3-layer-ONIOM, Crystal-QMMM,
                                                   LR-CPCM, SF, NACMEs, symmetry and pop. for TD-DFT,
                                                   nearIR, NL-DFT gradient (VV10), updates on ESD,
                                                   ML-optimized integration grids
   S Lehtola, MJT Oliveira, MAL Marques          : LibXC Library
   Liviu Ungur et al                             : ANISO software


 Your calculation uses the libint2 library for the computation of 2-el integrals
 For citations please refer to: http://libint.valeyev.net

 Your ORCA version has been built with support for libXC version: 5.2.2
 For citations please refer to: https://tddft.org/programs/libxc/

 This ORCA versions uses:
   CBLAS   interface :  Fast vector & matrix operations
   LAPACKE interface :  Fast linear algebra routines
   SCALAPACK package :  Parallel linear algebra routines
   Shared memory     :  Shared parallel matrices


================================================================================

----- Orbital basis set information -----
Your calculation utilizes the basis: def2-TZVP(-f)
   F. Weigend and R. Ahlrichs, Phys. Chem. Chem. Phys. 7, 3297 (2005).

----- AuxJ basis set information -----
Your calculation utilizes the auxiliary basis: def2/J
   F. Weigend, Phys. Chem. Chem. Phys. 8, 1057 (2006).

----- AuxC basis set information -----
Your calculation utilizes the auxiliary basis: def2-TZVP/C
  H-La, Hf-Rn : A. Hellweg, C. Hattig, S. Hofener and W. Klopper, Theor. Chem. Acc. 117, 587 (2007).
        Ce-Lu : J. Chmela and M. E. Harding, Mol. Phys. (2018).

================================================================================
                                        WARNINGS
                       Please study these warnings very carefully!
================================================================================


WARNING: Post HF methods need fully converged wavefunctions
  ===> : Setting SCFConvForced true
         You can overwrite this default with %scf ConvForced false 

================================================================================
                                       INPUT FILE
================================================================================
NAME = dimer.inp
|  1> ! DLPNO-CCSD RIJCOSX def2-TZVP(-f) def2/J def2-tzvp/C verytightscf LED
|  2> 
|  3> %pal nprocs 4 end
|  4> %maxcore 79200
|  5> %scf maxiter 999 end
|  6> %mdci TCutPairs 1e-5 printlevel 3
|  7>       LocMet FB LocTol 1.0e-6 LocRandom 1
|  8>       HFFragInter {1 1} {2 2} {3 3} {4 4} {5 5} {6 6} {7 7} {8 8} {9 9} {10 10} {11 11}
|  9>                   {2 3} {2 4} {2 5} {2 6} {2 7} {2 8} {2 9} {2 10} {2 11}
| 10>                   {3 4} {3 5} {3 6} {3 6} {3 8} {3 9} {3 10} {3 11}
| 11>                   {4 5} {4 6} {4 7} {4 8} {4 9} {4 10} {4 11}
| 12>                   {5 6} {5 7} {5 8} {5 9} {5 10} {5 11}
| 13>                   {6 7} {6 8} {6 9} {6 10} {6 11}
| 14>                   {7 8} {7 9} {7 10} {7 11}
| 15>                   {8 9} {8 10} {8 11}
| 16>                   {9 10} {9 11}
| 17>                   {10 11}
| 18>       end
| 19> 
| 20> *xyz 0 1
| 21> C(1)       3.959814    2.561396    5.671998
| 22> C(1)       5.124688    2.711507    6.307297
| 23> H(1)       5.910980    2.624495    5.781307
| 24> C(1)       5.318750    3.001413    7.756160
| 25> H(1)       5.764958    2.338040    8.269299
| 26> C(1)       4.922108    4.116628    8.413564
| 27> C(1)       4.187615    5.217888    7.728235
| 28> H(1)       4.592983    6.076768    7.705738
| 29> C(1)       2.996500    5.073177    7.144286
| 30> H(1)       2.598240    5.854076    6.778112
| 31> C(1)       2.240560    3.812194    7.014673
| 32> H(1)       1.374630    3.783577    7.404357
| 33> C(1)       2.667365    2.709888    6.398299
| 34> H(1)       2.096330    1.951116    6.424481
| 35> C(1)       3.855528    2.189510    4.180727
| 36> C(1)       3.206858    3.365610    3.443570
| 37> H(1)       2.312363    3.542338    3.829289
| 38> H(1)       3.759862    4.177210    3.568431
| 39> C(1)       3.066693    3.071653    1.950331
| 40> H(1)       2.641663    3.853971    1.494983
| 41> C(1)       4.418385    2.801990    1.331483
| 42> H(1)       4.992310    3.603436    1.423104
| 43> H(1)       4.310148    2.608715    0.366596
| 44> C(1)       5.082741    1.613149    2.021845
| 45> H(1)       5.984031    1.450291    1.620378
| 46> C(1)       5.232054    1.929266    3.531282
| 47> H(1)       5.671955    1.167507    3.985505
| 48> H(1)       5.806469    2.727454    3.645513
| 49> C(1)       2.984490    0.916534    3.972879
| 50> H(1)       3.414105    0.144085    4.418806
| 51> H(1)       2.094116    1.053032    4.383598
| 52> C(1)       2.820046    0.619609    2.471962
| 53> H(1)       2.244245   -0.189108    2.351826
| 54> C(1)       2.172758    1.820210    1.768524
| 55> H(1)       1.276608    1.990313    2.153342
| 56> H(1)       2.063503    1.624174    0.804312
| 57> C(1)       4.205273    0.362816    1.851089
| 58> H(1)       4.633831   -0.410619    2.296313
| 59> H(1)       4.107182    0.151182    0.888958
| 60> C(1)       5.254459    4.351654    9.886415
| 61> C(1)       3.942843    4.629858   10.626355
| 62> H(1)       3.337150    3.853519   10.523739
| 63> H(1)       3.499931    5.418498   10.223876
| 64> C(1)       4.188483    4.891347   12.124403
| 65> H(1)       3.319013    5.074687   12.583126
| 66> C(1)       4.866138    3.667012   12.762937
| 67> H(1)       5.027716    3.836876   13.724759
| 68> H(1)       4.275091    2.876862   12.682734
| 69> C(1)       6.198220    3.393588   12.052721
| 70> H(1)       6.631672    2.589020   12.458659
| 71> C(1)       5.931826    3.131816   10.562519
| 72> H(1)       5.347601    2.338169   10.468170
| 73> H(1)       6.788160    2.937070   10.105455
| 74> C(1)       6.192447    5.559403   10.079583
| 75> H(1)       5.786533    6.362172    9.666193
| 76> H(1)       7.054843    5.383533    9.626344
| 77> C(1)       6.443690    5.823950   11.579544
| 78> H(1)       7.040792    6.620087   11.677689
| 79> C(1)       5.124238    6.098831   12.281970
| 80> H(1)       4.699544    6.903322   11.891414
| 81> H(1)       5.287472    6.271327   13.243060
| 82> C(1)       7.120822    4.604047   12.215462
| 83> H(1)       7.988732    4.429725   11.772262
| 84> H(1)       7.289890    4.773633   13.176074
| 85> C(2)       9.674114   -0.664154    5.671998
| 86> C(2)      10.838988   -0.514043    6.307297
| 87> H(2)      11.625280   -0.601055    5.781307
| 88> C(2)      11.033050   -0.224137    7.756160
| 89> H(2)      11.479258   -0.887510    8.269299
| 90> C(2)      10.636408    0.891078    8.413564
| 91> C(2)       9.901915    1.992338    7.728235
| 92> H(2)      10.307283    2.851218    7.705738
| 93> C(2)       8.710800    1.847627    7.144286
| 94> H(2)       8.312540    2.628526    6.778112
| 95> C(2)       7.954860    0.586644    7.014673
| 96> H(2)       7.088930    0.558027    7.404357
| 97> C(2)       8.381665   -0.515662    6.398299
| 98> H(2)       7.810630   -1.274434    6.424481
| 99> C(2)       9.569828   -1.036040    4.180727
|100> C(2)       8.921158    0.140060    3.443570
|101> H(2)       8.026663    0.316788    3.829289
|102> H(2)       9.474162    0.951660    3.568431
|103> C(2)       8.780993   -0.153897    1.950331
|104> H(2)       8.355963    0.628421    1.494983
|105> C(2)      10.132685   -0.423560    1.331483
|106> H(2)      10.706610    0.377886    1.423104
|107> H(2)      10.024448   -0.616835    0.366596
|108> C(2)      10.797041   -1.612401    2.021845
|109> H(2)      11.698331   -1.775259    1.620378
|110> C(2)      10.946354   -1.296284    3.531282
|111> H(2)      11.386255   -2.058043    3.985505
|112> H(2)      11.520769   -0.498096    3.645513
|113> C(2)       8.698790   -2.309016    3.972879
|114> H(2)       9.128405   -3.081465    4.418806
|115> H(2)       7.808416   -2.172518    4.383598
|116> C(2)       8.534346   -2.605941    2.471962
|117> H(2)       7.958545   -3.414658    2.351826
|118> C(2)       7.887058   -1.405340    1.768524
|119> H(2)       6.990908   -1.235237    2.153342
|120> H(2)       7.777803   -1.601376    0.804312
|121> C(2)       9.919573   -2.862734    1.851089
|122> H(2)      10.348131   -3.636169    2.296313
|123> H(2)       9.821482   -3.074368    0.888958
|124> C(2)      10.968759    1.126104    9.886415
|125> C(2)       9.657143    1.404308   10.626355
|126> H(2)       9.051450    0.627969   10.523739
|127> H(2)       9.214231    2.192948   10.223876
|128> C(2)       9.902783    1.665797   12.124403
|129> H(2)       9.033313    1.849137   12.583126
|130> C(2)      10.580438    0.441462   12.762937
|131> H(2)      10.742016    0.611326   13.724759
|132> H(2)       9.989391   -0.348688   12.682734
|133> C(2)      11.912520    0.168038   12.052721
|134> H(2)      12.345972   -0.636530   12.458659
|135> C(2)      11.646126   -0.093734   10.562519
|136> H(2)      11.061901   -0.887381   10.468170
|137> H(2)      12.502460   -0.288480   10.105455
|138> C(2)      11.906747    2.333853   10.079583
|139> H(2)      11.500833    3.136622    9.666193
|140> H(2)      12.769143    2.157983    9.626344
|141> C(2)      12.157990    2.598400   11.579544
|142> H(2)      12.755092    3.394537   11.677689
|143> C(2)      10.838538    2.873281   12.281970
|144> H(2)      10.413844    3.677772   11.891414
|145> H(2)      11.001772    3.045777   13.243060
|146> C(2)      12.835122    1.378497   12.215462
|147> H(2)      13.703032    1.204175   11.772262
|148> H(2)      13.004190    1.548083   13.176074
|149> C(3)       3.959814    9.012496    5.671998
|150> C(3)       5.124688    9.162607    6.307297
|151> H(3)       5.910980    9.075595    5.781307
|152> C(3)       5.318750    9.452513    7.756160
|153> H(3)       5.764958    8.789140    8.269299
|154> C(3)       4.922108   10.567728    8.413564
|155> C(3)       4.187615   11.668988    7.728235
|156> H(3)       4.592983   12.527868    7.705738
|157> C(3)       2.996500   11.524277    7.144286
|158> H(3)       2.598240   12.305176    6.778112
|159> C(3)       2.240560   10.263294    7.014673
|160> H(3)       1.374630   10.234677    7.404357
|161> C(3)       2.667365    9.160988    6.398299
|162> H(3)       2.096330    8.402216    6.424481
|163> C(3)       3.855528    8.640610    4.180727
|164> C(3)       3.206858    9.816710    3.443570
|165> H(3)       2.312363    9.993438    3.829289
|166> H(3)       3.759862   10.628310    3.568431
|167> C(3)       3.066693    9.522753    1.950331
|168> H(3)       2.641663   10.305071    1.494983
|169> C(3)       4.418385    9.253090    1.331483
|170> H(3)       4.992310   10.054536    1.423104
|171> H(3)       4.310148    9.059815    0.366596
|172> C(3)       5.082741    8.064249    2.021845
|173> H(3)       5.984031    7.901391    1.620378
|174> C(3)       5.232054    8.380366    3.531282
|175> H(3)       5.671955    7.618607    3.985505
|176> H(3)       5.806469    9.178554    3.645513
|177> C(3)       2.984490    7.367634    3.972879
|178> H(3)       3.414105    6.595185    4.418806
|179> H(3)       2.094116    7.504132    4.383598
|180> C(3)       2.820046    7.070709    2.471962
|181> H(3)       2.244245    6.261992    2.351826
|182> C(3)       2.172758    8.271310    1.768524
|183> H(3)       1.276608    8.441413    2.153342
|184> H(3)       2.063503    8.075274    0.804312
|185> C(3)       4.205273    6.813916    1.851089
|186> H(3)       4.633831    6.040481    2.296313
|187> H(3)       4.107182    6.602282    0.888958
|188> C(3)       5.254459   10.802754    9.886415
|189> C(3)       3.942843   11.080958   10.626355
|190> H(3)       3.337150   10.304619   10.523739
|191> H(3)       3.499931   11.869598   10.223876
|192> C(3)       4.188483   11.342447   12.124403
|193> H(3)       3.319013   11.525787   12.583126
|194> C(3)       4.866138   10.118112   12.762937
|195> H(3)       5.027716   10.287976   13.724759
|196> H(3)       4.275091    9.327962   12.682734
|197> C(3)       6.198220    9.844688   12.052721
|198> H(3)       6.631672    9.040120   12.458659
|199> C(3)       5.931826    9.582916   10.562519
|200> H(3)       5.347601    8.789269   10.468170
|201> H(3)       6.788160    9.388170   10.105455
|202> C(3)       6.192447   12.010503   10.079583
|203> H(3)       5.786533   12.813272    9.666193
|204> H(3)       7.054843   11.834633    9.626344
|205> C(3)       6.443690   12.275050   11.579544
|206> H(3)       7.040792   13.071187   11.677689
|207> C(3)       5.124238   12.549931   12.281970
|208> H(3)       4.699544   13.354422   11.891414
|209> H(3)       5.287472   12.722427   13.243060
|210> C(3)       7.120822   11.055147   12.215462
|211> H(3)       7.988732   10.880825   11.772262
|212> H(3)       7.289890   11.224733   13.176074
|213> C(4)      -1.754486    5.786946    5.671998
|214> C(4)      -0.589612    5.937057    6.307297
|215> H(4)       0.196680    5.850045    5.781307
|216> C(4)      -0.395550    6.226963    7.756160
|217> H(4)       0.050658    5.563590    8.269299
|218> C(4)      -0.792192    7.342178    8.413564
|219> C(4)      -1.526685    8.443438    7.728235
|220> H(4)      -1.121317    9.302318    7.705738
|221> C(4)      -2.717800    8.298727    7.144286
|222> H(4)      -3.116060    9.079626    6.778112
|223> C(4)      -3.473740    7.037744    7.014673
|224> H(4)      -4.339670    7.009127    7.404357
|225> C(4)      -3.046935    5.935438    6.398299
|226> H(4)      -3.617970    5.176666    6.424481
|227> C(4)      -1.858772    5.415060    4.180727
|228> C(4)      -2.507442    6.591160    3.443570
|229> H(4)      -3.401937    6.767888    3.829289
|230> H(4)      -1.954438    7.402760    3.568431
|231> C(4)      -2.647607    6.297203    1.950331
|232> H(4)      -3.072637    7.079521    1.494983
|233> C(4)      -1.295915    6.027540    1.331483
|234> H(4)      -0.721990    6.828986    1.423104
|235> H(4)      -1.404152    5.834265    0.366596
|236> C(4)      -0.631559    4.838699    2.021845
|237> H(4)       0.269731    4.675841    1.620378
|238> C(4)      -0.482246    5.154816    3.531282
|239> H(4)      -0.042345    4.393057    3.985505
|240> H(4)       0.092169    5.953004    3.645513
|241> C(4)      -2.729810    4.142084    3.972879
|242> H(4)      -2.300195    3.369635    4.418806
|243> H(4)      -3.620184    4.278582    4.383598
|244> C(4)      -2.894254    3.845159    2.471962
|245> H(4)      -3.470055    3.036442    2.351826
|246> C(4)      -3.541542    5.045760    1.768524
|247> H(4)      -4.437692    5.215863    2.153342
|248> H(4)      -3.650797    4.849724    0.804312
|249> C(4)      -1.509027    3.588366    1.851089
|250> H(4)      -1.080469    2.814931    2.296313
|251> H(4)      -1.607118    3.376732    0.888958
|252> C(4)      -0.459841    7.577204    9.886415
|253> C(4)      -1.771457    7.855408   10.626355
|254> H(4)      -2.377150    7.079069   10.523739
|255> H(4)      -2.214369    8.644048   10.223876
|256> C(4)      -1.525817    8.116897   12.124403
|257> H(4)      -2.395287    8.300237   12.583126
|258> C(4)      -0.848162    6.892562   12.762937
|259> H(4)      -0.686584    7.062426   13.724759
|260> H(4)      -1.439209    6.102412   12.682734
|261> C(4)       0.483920    6.619138   12.052721
|262> H(4)       0.917372    5.814570   12.458659
|263> C(4)       0.217526    6.357366   10.562519
|264> H(4)      -0.366699    5.563719   10.468170
|265> H(4)       1.073860    6.162620   10.105455
|266> C(4)       0.478147    8.784953   10.079583
|267> H(4)       0.072233    9.587722    9.666193
|268> H(4)       1.340543    8.609083    9.626344
|269> C(4)       0.729390    9.049500   11.579544
|270> H(4)       1.326492    9.845637   11.677689
|271> C(4)      -0.590062    9.324381   12.281970
|272> H(4)      -1.014756   10.128872   11.891414
|273> H(4)      -0.426828    9.496877   13.243060
|274> C(4)       1.406522    7.829597   12.215462
|275> H(4)       2.274432    7.655275   11.772262
|276> H(4)       1.575590    7.999183   13.176074
|277> C(5)      -1.754486   -0.664154    5.671998
|278> C(5)      -0.589612   -0.514043    6.307297
|279> H(5)       0.196680   -0.601055    5.781307
|280> C(5)      -0.395550   -0.224137    7.756160
|281> H(5)       0.050658   -0.887510    8.269299
|282> C(5)      -0.792192    0.891078    8.413564
|283> C(5)      -1.526685    1.992338    7.728235
|284> H(5)      -1.121317    2.851218    7.705738
|285> C(5)      -2.717800    1.847627    7.144286
|286> H(5)      -3.116060    2.628526    6.778112
|287> C(5)      -3.473740    0.586644    7.014673
|288> H(5)      -4.339670    0.558027    7.404357
|289> C(5)      -3.046935   -0.515662    6.398299
|290> H(5)      -3.617970   -1.274434    6.424481
|291> C(5)      -1.858772   -1.036040    4.180727
|292> C(5)      -2.507442    0.140060    3.443570
|293> H(5)      -3.401937    0.316788    3.829289
|294> H(5)      -1.954438    0.951660    3.568431
|295> C(5)      -2.647607   -0.153897    1.950331
|296> H(5)      -3.072637    0.628421    1.494983
|297> C(5)      -1.295915   -0.423560    1.331483
|298> H(5)      -0.721990    0.377886    1.423104
|299> H(5)      -1.404152   -0.616835    0.366596
|300> C(5)      -0.631559   -1.612401    2.021845
|301> H(5)       0.269731   -1.775259    1.620378
|302> C(5)      -0.482246   -1.296284    3.531282
|303> H(5)      -0.042345   -2.058043    3.985505
|304> H(5)       0.092169   -0.498096    3.645513
|305> C(5)      -2.729810   -2.309016    3.972879
|306> H(5)      -2.300195   -3.081465    4.418806
|307> H(5)      -3.620184   -2.172518    4.383598
|308> C(5)      -2.894254   -2.605941    2.471962
|309> H(5)      -3.470055   -3.414658    2.351826
|310> C(5)      -3.541542   -1.405340    1.768524
|311> H(5)      -4.437692   -1.235237    2.153342
|312> H(5)      -3.650797   -1.601376    0.804312
|313> C(5)      -1.509027   -2.862734    1.851089
|314> H(5)      -1.080469   -3.636169    2.296313
|315> H(5)      -1.607118   -3.074368    0.888958
|316> C(5)      -0.459841    1.126104    9.886415
|317> C(5)      -1.771457    1.404308   10.626355
|318> H(5)      -2.377150    0.627969   10.523739
|319> H(5)      -2.214369    2.192948   10.223876
|320> C(5)      -1.525817    1.665797   12.124403
|321> H(5)      -2.395287    1.849137   12.583126
|322> C(5)      -0.848162    0.441462   12.762937
|323> H(5)      -0.686584    0.611326   13.724759
|324> H(5)      -1.439209   -0.348688   12.682734
|325> C(5)       0.483920    0.168038   12.052721
|326> H(5)       0.917372   -0.636530   12.458659
|327> C(5)       0.217526   -0.093734   10.562519
|328> H(5)      -0.366699   -0.887381   10.468170
|329> H(5)       1.073860   -0.288480   10.105455
|330> C(5)       0.478147    2.333853   10.079583
|331> H(5)       0.072233    3.136622    9.666193
|332> H(5)       1.340543    2.157983    9.626344
|333> C(5)       0.729390    2.598400   11.579544
|334> H(5)       1.326492    3.394537   11.677689
|335> C(5)      -0.590062    2.873281   12.281970
|336> H(5)      -1.014756    3.677772   11.891414
|337> H(5)      -0.426828    3.045777   13.243060
|338> C(5)       1.406522    1.378497   12.215462
|339> H(5)       2.274432    1.204175   11.772262
|340> H(5)       1.575590    1.548083   13.176074
|341> C(6)       9.674114    5.786946    5.671998
|342> C(6)      10.838988    5.937057    6.307297
|343> H(6)      11.625280    5.850045    5.781307
|344> C(6)      11.033050    6.226963    7.756160
|345> H(6)      11.479258    5.563590    8.269299
|346> C(6)      10.636408    7.342178    8.413564
|347> C(6)       9.901915    8.443438    7.728235
|348> H(6)      10.307283    9.302318    7.705738
|349> C(6)       8.710800    8.298727    7.144286
|350> H(6)       8.312540    9.079626    6.778112
|351> C(6)       7.954860    7.037744    7.014673
|352> H(6)       7.088930    7.009127    7.404357
|353> C(6)       8.381665    5.935438    6.398299
|354> H(6)       7.810630    5.176666    6.424481
|355> C(6)       9.569828    5.415060    4.180727
|356> C(6)       8.921158    6.591160    3.443570
|357> H(6)       8.026663    6.767888    3.829289
|358> H(6)       9.474162    7.402760    3.568431
|359> C(6)       8.780993    6.297203    1.950331
|360> H(6)       8.355963    7.079521    1.494983
|361> C(6)      10.132685    6.027540    1.331483
|362> H(6)      10.706610    6.828986    1.423104
|363> H(6)      10.024448    5.834265    0.366596
|364> C(6)      10.797041    4.838699    2.021845
|365> H(6)      11.698331    4.675841    1.620378
|366> C(6)      10.946354    5.154816    3.531282
|367> H(6)      11.386255    4.393057    3.985505
|368> H(6)      11.520769    5.953004    3.645513
|369> C(6)       8.698790    4.142084    3.972879
|370> H(6)       9.128405    3.369635    4.418806
|371> H(6)       7.808416    4.278582    4.383598
|372> C(6)       8.534346    3.845159    2.471962
|373> H(6)       7.958545    3.036442    2.351826
|374> C(6)       7.887058    5.045760    1.768524
|375> H(6)       6.990908    5.215863    2.153342
|376> H(6)       7.777803    4.849724    0.804312
|377> C(6)       9.919573    3.588366    1.851089
|378> H(6)      10.348131    2.814931    2.296313
|379> H(6)       9.821482    3.376732    0.888958
|380> C(6)      10.968759    7.577204    9.886415
|381> C(6)       9.657143    7.855408   10.626355
|382> H(6)       9.051450    7.079069   10.523739
|383> H(6)       9.214231    8.644048   10.223876
|384> C(6)       9.902783    8.116897   12.124403
|385> H(6)       9.033313    8.300237   12.583126
|386> C(6)      10.580438    6.892562   12.762937
|387> H(6)      10.742016    7.062426   13.724759
|388> H(6)       9.989391    6.102412   12.682734
|389> C(6)      11.912520    6.619138   12.052721
|390> H(6)      12.345972    5.814570   12.458659
|391> C(6)      11.646126    6.357366   10.562519
|392> H(6)      11.061901    5.563719   10.468170
|393> H(6)      12.502460    6.162620   10.105455
|394> C(6)      11.906747    8.784953   10.079583
|395> H(6)      11.500833    9.587722    9.666193
|396> H(6)      12.769143    8.609083    9.626344
|397> C(6)      12.157990    9.049500   11.579544
|398> H(6)      12.755092    9.845637   11.677689
|399> C(6)      10.838538    9.324381   12.281970
|400> H(6)      10.413844   10.128872   11.891414
|401> H(6)      11.001772    9.496877   13.243060
|402> C(6)      12.835122    7.829597   12.215462
|403> H(6)      13.703032    7.655275   11.772262
|404> H(6)      13.004190    7.999183   13.176074
|405> C(7)       3.959814   -3.889704    5.671998
|406> C(7)       5.124688   -3.739593    6.307297
|407> H(7)       5.910980   -3.826605    5.781307
|408> C(7)       5.318750   -3.449687    7.756160
|409> H(7)       5.764958   -4.113060    8.269299
|410> C(7)       4.922108   -2.334472    8.413564
|411> C(7)       4.187615   -1.233212    7.728235
|412> H(7)       4.592983   -0.374332    7.705738
|413> C(7)       2.996500   -1.377923    7.144286
|414> H(7)       2.598240   -0.597024    6.778112
|415> C(7)       2.240560   -2.638906    7.014673
|416> H(7)       1.374630   -2.667523    7.404357
|417> C(7)       2.667365   -3.741212    6.398299
|418> H(7)       2.096330   -4.499984    6.424481
|419> C(7)       3.855528   -4.261590    4.180727
|420> C(7)       3.206858   -3.085490    3.443570
|421> H(7)       2.312363   -2.908762    3.829289
|422> H(7)       3.759862   -2.273890    3.568431
|423> C(7)       3.066693   -3.379447    1.950331
|424> H(7)       2.641663   -2.597129    1.494983
|425> C(7)       4.418385   -3.649110    1.331483
|426> H(7)       4.992310   -2.847664    1.423104
|427> H(7)       4.310148   -3.842385    0.366596
|428> C(7)       5.082741   -4.837951    2.021845
|429> H(7)       5.984031   -5.000809    1.620378
|430> C(7)       5.232054   -4.521834    3.531282
|431> H(7)       5.671955   -5.283593    3.985505
|432> H(7)       5.806469   -3.723646    3.645513
|433> C(7)       2.984490   -5.534566    3.972879
|434> H(7)       3.414105   -6.307015    4.418806
|435> H(7)       2.094116   -5.398068    4.383598
|436> C(7)       2.820046   -5.831491    2.471962
|437> H(7)       2.244245   -6.640208    2.351826
|438> C(7)       2.172758   -4.630890    1.768524
|439> H(7)       1.276608   -4.460787    2.153342
|440> H(7)       2.063503   -4.826926    0.804312
|441> C(7)       4.205273   -6.088284    1.851089
|442> H(7)       4.633831   -6.861719    2.296313
|443> H(7)       4.107182   -6.299918    0.888958
|444> C(7)       5.254459   -2.099446    9.886415
|445> C(7)       3.942843   -1.821242   10.626355
|446> H(7)       3.337150   -2.597581   10.523739
|447> H(7)       3.499931   -1.032602   10.223876
|448> C(7)       4.188483   -1.559753   12.124403
|449> H(7)       3.319013   -1.376413   12.583126
|450> C(7)       4.866138   -2.784088   12.762937
|451> H(7)       5.027716   -2.614224   13.724759
|452> H(7)       4.275091   -3.574238   12.682734
|453> C(7)       6.198220   -3.057512   12.052721
|454> H(7)       6.631672   -3.862080   12.458659
|455> C(7)       5.931826   -3.319284   10.562519
|456> H(7)       5.347601   -4.112931   10.468170
|457> H(7)       6.788160   -3.514030   10.105455
|458> C(7)       6.192447   -0.891697   10.079583
|459> H(7)       5.786533   -0.088928    9.666193
|460> H(7)       7.054843   -1.067567    9.626344
|461> C(7)       6.443690   -0.627150   11.579544
|462> H(7)       7.040792    0.168987   11.677689
|463> C(7)       5.124238   -0.352269   12.281970
|464> H(7)       4.699544    0.452222   11.891414
|465> H(7)       5.287472   -0.179773   13.243060
|466> C(7)       7.120822   -1.847053   12.215462
|467> H(7)       7.988732   -2.021375   11.772262
|468> H(7)       7.289890   -1.677467   13.176074
|469> C(8)       1.754486    5.786946   -5.671998
|470> C(8)       0.589612    5.937057   -6.307297
|471> H(8)      -0.196680    5.850045   -5.781307
|472> C(8)       0.395550    6.226963   -7.756160
|473> H(8)      -0.050658    5.563590   -8.269299
|474> C(8)       0.792192    7.342178   -8.413564
|475> C(8)       1.526685    8.443438   -7.728235
|476> H(8)       1.121317    9.302318   -7.705738
|477> C(8)       2.717800    8.298727   -7.144286
|478> H(8)       3.116060    9.079626   -6.778112
|479> C(8)       3.473740    7.037744   -7.014673
|480> H(8)       4.339670    7.009127   -7.404357
|481> C(8)       3.046935    5.935438   -6.398299
|482> H(8)       3.617970    5.176666   -6.424481
|483> C(8)       1.858772    5.415060   -4.180727
|484> C(8)       2.507442    6.591160   -3.443570
|485> H(8)       3.401937    6.767888   -3.829289
|486> H(8)       1.954438    7.402760   -3.568431
|487> C(8)       2.647607    6.297203   -1.950331
|488> H(8)       3.072637    7.079521   -1.494983
|489> C(8)       1.295915    6.027540   -1.331483
|490> H(8)       0.721990    6.828986   -1.423104
|491> H(8)       1.404152    5.834265   -0.366596
|492> C(8)       0.631559    4.838699   -2.021845
|493> H(8)      -0.269731    4.675841   -1.620378
|494> C(8)       0.482246    5.154816   -3.531282
|495> H(8)       0.042345    4.393057   -3.985505
|496> H(8)      -0.092169    5.953004   -3.645513
|497> C(8)       2.729810    4.142084   -3.972879
|498> H(8)       2.300195    3.369635   -4.418806
|499> H(8)       3.620184    4.278582   -4.383598
|500> C(8)       2.894254    3.845159   -2.471962
|501> H(8)       3.470055    3.036442   -2.351826
|502> C(8)       3.541542    5.045760   -1.768524
|503> H(8)       4.437692    5.215863   -2.153342
|504> H(8)       3.650797    4.849724   -0.804312
|505> C(8)       1.509027    3.588366   -1.851089
|506> H(8)       1.080469    2.814931   -2.296313
|507> H(8)       1.607118    3.376732   -0.888958
|508> C(8)       0.459841    7.577204   -9.886415
|509> C(8)       1.771457    7.855408  -10.626355
|510> H(8)       2.377150    7.079069  -10.523739
|511> H(8)       2.214369    8.644048  -10.223876
|512> C(8)       1.525817    8.116897  -12.124403
|513> H(8)       2.395287    8.300237  -12.583126
|514> C(8)       0.848162    6.892562  -12.762937
|515> H(8)       0.686584    7.062426  -13.724759
|516> H(8)       1.439209    6.102412  -12.682734
|517> C(8)      -0.483920    6.619138  -12.052721
|518> H(8)      -0.917372    5.814570  -12.458659
|519> C(8)      -0.217526    6.357366  -10.562519
|520> H(8)       0.366699    5.563719  -10.468170
|521> H(8)      -1.073860    6.162620  -10.105455
|522> C(8)      -0.478147    8.784953  -10.079583
|523> H(8)      -0.072233    9.587722   -9.666193
|524> H(8)      -1.340543    8.609083   -9.626344
|525> C(8)      -0.729390    9.049500  -11.579544
|526> H(8)      -1.326492    9.845637  -11.677689
|527> C(8)       0.590062    9.324381  -12.281970
|528> H(8)       1.014756   10.128872  -11.891414
|529> H(8)       0.426828    9.496877  -13.243060
|530> C(8)      -1.406522    7.829597  -12.215462
|531> H(8)      -2.274432    7.655275  -11.772262
|532> H(8)      -1.575590    7.999183  -13.176074
|533> C(9)       1.754486   -0.664154   -5.671998
|534> C(9)       0.589612   -0.514043   -6.307297
|535> H(9)      -0.196680   -0.601055   -5.781307
|536> C(9)       0.395550   -0.224137   -7.756160
|537> H(9)      -0.050658   -0.887510   -8.269299
|538> C(9)       0.792192    0.891078   -8.413564
|539> C(9)       1.526685    1.992338   -7.728235
|540> H(9)       1.121317    2.851218   -7.705738
|541> C(9)       2.717800    1.847627   -7.144286
|542> H(9)       3.116060    2.628526   -6.778112
|543> C(9)       3.473740    0.586644   -7.014673
|544> H(9)       4.339670    0.558027   -7.404357
|545> C(9)       3.046935   -0.515662   -6.398299
|546> H(9)       3.617970   -1.274434   -6.424481
|547> C(9)       1.858772   -1.036040   -4.180727
|548> C(9)       2.507442    0.140060   -3.443570
|549> H(9)       3.401937    0.316788   -3.829289
|550> H(9)       1.954438    0.951660   -3.568431
|551> C(9)       2.647607   -0.153897   -1.950331
|552> H(9)       3.072637    0.628421   -1.494983
|553> C(9)       1.295915   -0.423560   -1.331483
|554> H(9)       0.721990    0.377886   -1.423104
|555> H(9)       1.404152   -0.616835   -0.366596
|556> C(9)       0.631559   -1.612401   -2.021845
|557> H(9)      -0.269731   -1.775259   -1.620378
|558> C(9)       0.482246   -1.296284   -3.531282
|559> H(9)       0.042345   -2.058043   -3.985505
|560> H(9)      -0.092169   -0.498096   -3.645513
|561> C(9)       2.729810   -2.309016   -3.972879
|562> H(9)       2.300195   -3.081465   -4.418806
|563> H(9)       3.620184   -2.172518   -4.383598
|564> C(9)       2.894254   -2.605941   -2.471962
|565> H(9)       3.470055   -3.414658   -2.351826
|566> C(9)       3.541542   -1.405340   -1.768524
|567> H(9)       4.437692   -1.235237   -2.153342
|568> H(9)       3.650797   -1.601376   -0.804312
|569> C(9)       1.509027   -2.862734   -1.851089
|570> H(9)       1.080469   -3.636169   -2.296313
|571> H(9)       1.607118   -3.074368   -0.888958
|572> C(9)       0.459841    1.126104   -9.886415
|573> C(9)       1.771457    1.404308  -10.626355
|574> H(9)       2.377150    0.627969  -10.523739
|575> H(9)       2.214369    2.192948  -10.223876
|576> C(9)       1.525817    1.665797  -12.124403
|577> H(9)       2.395287    1.849137  -12.583126
|578> C(9)       0.848162    0.441462  -12.762937
|579> H(9)       0.686584    0.611326  -13.724759
|580> H(9)       1.439209   -0.348688  -12.682734
|581> C(9)      -0.483920    0.168038  -12.052721
|582> H(9)      -0.917372   -0.636530  -12.458659
|583> C(9)      -0.217526   -0.093734  -10.562519
|584> H(9)       0.366699   -0.887381  -10.468170
|585> H(9)      -1.073860   -0.288480  -10.105455
|586> C(9)      -0.478147    2.333853  -10.079583
|587> H(9)      -0.072233    3.136622   -9.666193
|588> H(9)      -1.340543    2.157983   -9.626344
|589> C(9)      -0.729390    2.598400  -11.579544
|590> H(9)      -1.326492    3.394537  -11.677689
|591> C(9)       0.590062    2.873281  -12.281970
|592> H(9)       1.014756    3.677772  -11.891414
|593> H(9)       0.426828    3.045777  -13.243060
|594> C(9)      -1.406522    1.378497  -12.215462
|595> H(9)      -2.274432    1.204175  -11.772262
|596> H(9)      -1.575590    1.548083  -13.176074
|597> C(10)       8.845181    5.786946   22.449799
|598> C(10)       7.680306    5.937057   21.814500
|599> H(10)       6.894014    5.850045   22.340490
|600> C(10)       7.486244    6.226963   20.365637
|601> H(10)       7.040037    5.563590   19.852498
|602> C(10)       7.882887    7.342178   19.708233
|603> C(10)       8.617380    8.443438   20.393561
|604> H(10)       8.212011    9.302318   20.416059
|605> C(10)       9.808495    8.298727   20.977511
|606> H(10)      10.206755    9.079626   21.343684
|607> C(10)      10.564435    7.037744   21.107124
|608> H(10)      11.430364    7.009127   20.717440
|609> C(10)      10.137630    5.935438   21.723497
|610> H(10)      10.708664    5.176666   21.697316
|611> C(10)       8.949467    5.415060   23.941070
|612> C(10)       9.598136    6.591160   24.678227
|613> H(10)      10.492631    6.767888   24.292508
|614> H(10)       9.045132    7.402760   24.553366
|615> C(10)       9.738301    6.297203   26.171466
|616> H(10)      10.163332    7.079521   26.626814
|617> C(10)       8.386610    6.027540   26.790314
|618> H(10)       7.812684    6.828986   26.698693
|619> H(10)       8.494847    5.834265   27.755201
|620> C(10)       7.722253    4.838699   26.099952
|621> H(10)       6.820963    4.675841   26.501419
|622> C(10)       7.572941    5.154816   24.590515
|623> H(10)       7.133040    4.393057   24.136291
|624> H(10)       6.998526    5.953004   24.476284
|625> C(10)       9.820505    4.142084   24.148918
|626> H(10)       9.390889    3.369635   23.702991
|627> H(10)      10.710879    4.278582   23.738199
|628> C(10)       9.984949    3.845159   25.649835
|629> H(10)      10.560750    3.036442   25.769971
|630> C(10)      10.632236    5.045760   26.353273
|631> H(10)      11.528387    5.215863   25.968455
|632> H(10)      10.741492    4.849724   27.317485
|633> C(10)       8.599722    3.588366   26.270708
|634> H(10)       8.171164    2.814931   25.825483
|635> H(10)       8.697812    3.376732   27.232839
|636> C(10)       7.550536    7.577204   18.235382
|637> C(10)       8.862152    7.855408   17.495442
|638> H(10)       9.467845    7.079069   17.598058
|639> H(10)       9.305063    8.644048   17.897921
|640> C(10)       8.616511    8.116897   15.997393
|641> H(10)       9.485982    8.300237   15.538671
|642> C(10)       7.938857    6.892562   15.358860
|643> H(10)       7.777278    7.062426   14.397038
|644> H(10)       8.529904    6.102412   15.439063
|645> C(10)       6.606774    6.619138   16.069076
|646> H(10)       6.173322    5.814570   15.663138
|647> C(10)       6.873169    6.357366   17.559278
|648> H(10)       7.457394    5.563719   17.653627
|649> H(10)       6.016834    6.162620   18.016342
|650> C(10)       6.612548    8.784953   18.042214
|651> H(10)       7.018462    9.587722   18.455604
|652> H(10)       5.750152    8.609083   18.495453
|653> C(10)       6.361304    9.049500   16.542253
|654> H(10)       5.764202    9.845637   16.444108
|655> C(10)       7.680757    9.324381   15.839827
|656> H(10)       8.105450   10.128872   16.230383
|657> H(10)       7.517523    9.496877   14.878736
|658> C(10)       5.684173    7.829597   15.906335
|659> H(10)       4.816262    7.655275   16.349535
|660> H(10)       5.515105    7.999183   14.945723
|661> C(11)       8.845181   -0.664154   22.449799
|662> C(11)       7.680306   -0.514043   21.814500
|663> H(11)       6.894014   -0.601055   22.340490
|664> C(11)       7.486244   -0.224137   20.365637
|665> H(11)       7.040037   -0.887510   19.852498
|666> C(11)       7.882887    0.891078   19.708233
|667> C(11)       8.617380    1.992338   20.393561
|668> H(11)       8.212011    2.851218   20.416059
|669> C(11)       9.808495    1.847627   20.977511
|670> H(11)      10.206755    2.628526   21.343684
|671> C(11)      10.564435    0.586644   21.107124
|672> H(11)      11.430364    0.558027   20.717440
|673> C(11)      10.137630   -0.515662   21.723497
|674> H(11)      10.708664   -1.274434   21.697316
|675> C(11)       8.949467   -1.036040   23.941070
|676> C(11)       9.598136    0.140060   24.678227
|677> H(11)      10.492631    0.316788   24.292508
|678> H(11)       9.045132    0.951660   24.553366
|679> C(11)       9.738301   -0.153897   26.171466
|680> H(11)      10.163332    0.628421   26.626814
|681> C(11)       8.386610   -0.423560   26.790314
|682> H(11)       7.812684    0.377886   26.698693
|683> H(11)       8.494847   -0.616835   27.755201
|684> C(11)       7.722253   -1.612401   26.099952
|685> H(11)       6.820963   -1.775259   26.501419
|686> C(11)       7.572941   -1.296284   24.590515
|687> H(11)       7.133040   -2.058043   24.136291
|688> H(11)       6.998526   -0.498096   24.476284
|689> C(11)       9.820505   -2.309016   24.148918
|690> H(11)       9.390889   -3.081465   23.702991
|691> H(11)      10.710879   -2.172518   23.738199
|692> C(11)       9.984949   -2.605941   25.649835
|693> H(11)      10.560750   -3.414658   25.769971
|694> C(11)      10.632236   -1.405340   26.353273
|695> H(11)      11.528387   -1.235237   25.968455
|696> H(11)      10.741492   -1.601376   27.317485
|697> C(11)       8.599722   -2.862734   26.270708
|698> H(11)       8.171164   -3.636169   25.825483
|699> H(11)       8.697812   -3.074368   27.232839
|700> C(11)       7.550536    1.126104   18.235382
|701> C(11)       8.862152    1.404308   17.495442
|702> H(11)       9.467845    0.627969   17.598058
|703> H(11)       9.305063    2.192948   17.897921
|704> C(11)       8.616511    1.665797   15.997393
|705> H(11)       9.485982    1.849137   15.538671
|706> C(11)       7.938857    0.441462   15.358860
|707> H(11)       7.777278    0.611326   14.397038
|708> H(11)       8.529904   -0.348688   15.439063
|709> C(11)       6.606774    0.168038   16.069076
|710> H(11)       6.173322   -0.636530   15.663138
|711> C(11)       6.873169   -0.093734   17.559278
|712> H(11)       7.457394   -0.887381   17.653627
|713> H(11)       6.016834   -0.288480   18.016342
|714> C(11)       6.612548    2.333853   18.042214
|715> H(11)       7.018462    3.136622   18.455604
|716> H(11)       5.750152    2.157983   18.495453
|717> C(11)       6.361304    2.598400   16.542253
|718> H(11)       5.764202    3.394537   16.444108
|719> C(11)       7.680757    2.873281   15.839827
|720> H(11)       8.105450    3.677772   16.230383
|721> H(11)       7.517523    3.045777   14.878736
|722> C(11)       5.684173    1.378497   15.906335
|723> H(11)       4.816262    1.204175   16.349535
|724> H(11)       5.515105    1.548083   14.945723
|725> *
|726> 
|727>                          ****END OF INPUT****
================================================================================

                       ****************************
                       * Single Point Calculation *
                       ****************************

---------------------------------
CARTESIAN COORDINATES (ANGSTROEM)
---------------------------------
  C      3.959814    2.561396    5.671998
  C      5.124688    2.711507    6.307297
  H      5.910980    2.624495    5.781307
  C      5.318750    3.001413    7.756160
  H      5.764958    2.338040    8.269299
  C      4.922108    4.116628    8.413564
  C      4.187615    5.217888    7.728235
  H      4.592983    6.076768    7.705738
  C      2.996500    5.073177    7.144286
  H      2.598240    5.854076    6.778112
  C      2.240560    3.812194    7.014673
  H      1.374630    3.783577    7.404357
  C      2.667365    2.709888    6.398299
  H      2.096330    1.951116    6.424481
  C      3.855528    2.189510    4.180727
  C      3.206858    3.365610    3.443570
  H      2.312363    3.542338    3.829289
  H      3.759862    4.177210    3.568431
  C      3.066693    3.071653    1.950331
  H      2.641663    3.853971    1.494983
  C      4.418385    2.801990    1.331483
  H      4.992310    3.603436    1.423104
  H      4.310148    2.608715    0.366596
  C      5.082741    1.613149    2.021845
  H      5.984031    1.450291    1.620378
  C      5.232054    1.929266    3.531282
  H      5.671955    1.167507    3.985505
  H      5.806469    2.727454    3.645513
  C      2.984490    0.916534    3.972879
  H      3.414105    0.144085    4.418806
  H      2.094116    1.053032    4.383598
  C      2.820046    0.619609    2.471962
  H      2.244245   -0.189108    2.351826
  C      2.172758    1.820210    1.768524
  H      1.276608    1.990313    2.153342
  H      2.063503    1.624174    0.804312
  C      4.205273    0.362816    1.851089
  H      4.633831   -0.410619    2.296313
  H      4.107182    0.151182    0.888958
  C      5.254459    4.351654    9.886415
  C      3.942843    4.629858   10.626355
  H      3.337150    3.853519   10.523739
  H      3.499931    5.418498   10.223876
  C      4.188483    4.891347   12.124403
  H      3.319013    5.074687   12.583126
  C      4.866138    3.667012   12.762937
  H      5.027716    3.836876   13.724759
  H      4.275091    2.876862   12.682734
  C      6.198220    3.393588   12.052721
  H      6.631672    2.589020   12.458659
  C      5.931826    3.131816   10.562519
  H      5.347601    2.338169   10.468170
  H      6.788160    2.937070   10.105455
  C      6.192447    5.559403   10.079583
  H      5.786533    6.362172    9.666193
  H      7.054843    5.383533    9.626344
  C      6.443690    5.823950   11.579544
  H      7.040792    6.620087   11.677689
  C      5.124238    6.098831   12.281970
  H      4.699544    6.903322   11.891414
  H      5.287472    6.271327   13.243060
  C      7.120822    4.604047   12.215462
  H      7.988732    4.429725   11.772262
  H      7.289890    4.773633   13.176074
  C      9.674114   -0.664154    5.671998
  C     10.838988   -0.514043    6.307297
  H     11.625280   -0.601055    5.781307
  C     11.033050   -0.224137    7.756160
  H     11.479258   -0.887510    8.269299
  C     10.636408    0.891078    8.413564
  C      9.901915    1.992338    7.728235
  H     10.307283    2.851218    7.705738
  C      8.710800    1.847627    7.144286
  H      8.312540    2.628526    6.778112
  C      7.954860    0.586644    7.014673
  H      7.088930    0.558027    7.404357
  C      8.381665   -0.515662    6.398299
  H      7.810630   -1.274434    6.424481
  C      9.569828   -1.036040    4.180727
  C      8.921158    0.140060    3.443570
  H      8.026663    0.316788    3.829289
  H      9.474162    0.951660    3.568431
  C      8.780993   -0.153897    1.950331
  H      8.355963    0.628421    1.494983
  C     10.132685   -0.423560    1.331483
  H     10.706610    0.377886    1.423104
  H     10.024448   -0.616835    0.366596
  C     10.797041   -1.612401    2.021845
  H     11.698331   -1.775259    1.620378
  C     10.946354   -1.296284    3.531282
  H     11.386255   -2.058043    3.985505
  H     11.520769   -0.498096    3.645513
  C      8.698790   -2.309016    3.972879
  H      9.128405   -3.081465    4.418806
  H      7.808416   -2.172518    4.383598
  C      8.534346   -2.605941    2.471962
  H      7.958545   -3.414658    2.351826
  C      7.887058   -1.405340    1.768524
  H      6.990908   -1.235237    2.153342
  H      7.777803   -1.601376    0.804312
  C      9.919573   -2.862734    1.851089
  H     10.348131   -3.636169    2.296313
  H      9.821482   -3.074368    0.888958
  C     10.968759    1.126104    9.886415
  C      9.657143    1.404308   10.626355
  H      9.051450    0.627969   10.523739
  H      9.214231    2.192948   10.223876
  C      9.902783    1.665797   12.124403
  H      9.033313    1.849137   12.583126
  C     10.580438    0.441462   12.762937
  H     10.742016    0.611326   13.724759
  H      9.989391   -0.348688   12.682734
  C     11.912520    0.168038   12.052721
  H     12.345972   -0.636530   12.458659
  C     11.646126   -0.093734   10.562519
  H     11.061901   -0.887381   10.468170
  H     12.502460   -0.288480   10.105455
  C     11.906747    2.333853   10.079583
  H     11.500833    3.136622    9.666193
  H     12.769143    2.157983    9.626344
  C     12.157990    2.598400   11.579544
  H     12.755092    3.394537   11.677689
  C     10.838538    2.873281   12.281970
  H     10.413844    3.677772   11.891414
  H     11.001772    3.045777   13.243060
  C     12.835122    1.378497   12.215462
  H     13.703032    1.204175   11.772262
  H     13.004190    1.548083   13.176074
  C      3.959814    9.012496    5.671998
  C      5.124688    9.162607    6.307297
  H      5.910980    9.075595    5.781307
  C      5.318750    9.452513    7.756160
  H      5.764958    8.789140    8.269299
  C      4.922108   10.567728    8.413564
  C      4.187615   11.668988    7.728235
  H      4.592983   12.527868    7.705738
  C      2.996500   11.524277    7.144286
  H      2.598240   12.305176    6.778112
  C      2.240560   10.263294    7.014673
  H      1.374630   10.234677    7.404357
  C      2.667365    9.160988    6.398299
  H      2.096330    8.402216    6.424481
  C      3.855528    8.640610    4.180727
  C      3.206858    9.816710    3.443570
  H      2.312363    9.993438    3.829289
  H      3.759862   10.628310    3.568431
  C      3.066693    9.522753    1.950331
  H      2.641663   10.305071    1.494983
  C      4.418385    9.253090    1.331483
  H      4.992310   10.054536    1.423104
  H      4.310148    9.059815    0.366596
  C      5.082741    8.064249    2.021845
  H      5.984031    7.901391    1.620378
  C      5.232054    8.380366    3.531282
  H      5.671955    7.618607    3.985505
  H      5.806469    9.178554    3.645513
  C      2.984490    7.367634    3.972879
  H      3.414105    6.595185    4.418806
  H      2.094116    7.504132    4.383598
  C      2.820046    7.070709    2.471962
  H      2.244245    6.261992    2.351826
  C      2.172758    8.271310    1.768524
  H      1.276608    8.441413    2.153342
  H      2.063503    8.075274    0.804312
  C      4.205273    6.813916    1.851089
  H      4.633831    6.040481    2.296313
  H      4.107182    6.602282    0.888958
  C      5.254459   10.802754    9.886415
  C      3.942843   11.080958   10.626355
  H      3.337150   10.304619   10.523739
  H      3.499931   11.869598   10.223876
  C      4.188483   11.342447   12.124403
  H      3.319013   11.525787   12.583126
  C      4.866138   10.118112   12.762937
  H      5.027716   10.287976   13.724759
  H      4.275091    9.327962   12.682734
  C      6.198220    9.844688   12.052721
  H      6.631672    9.040120   12.458659
  C      5.931826    9.582916   10.562519
  H      5.347601    8.789269   10.468170
  H      6.788160    9.388170   10.105455
  C      6.192447   12.010503   10.079583
  H      5.786533   12.813272    9.666193
  H      7.054843   11.834633    9.626344
  C      6.443690   12.275050   11.579544
  H      7.040792   13.071187   11.677689
  C      5.124238   12.549931   12.281970
  H      4.699544   13.354422   11.891414
  H      5.287472   12.722427   13.243060
  C      7.120822   11.055147   12.215462
  H      7.988732   10.880825   11.772262
  H      7.289890   11.224733   13.176074
  C     -1.754486    5.786946    5.671998
  C     -0.589612    5.937057    6.307297
  H      0.196680    5.850045    5.781307
  C     -0.395550    6.226963    7.756160
  H      0.050658    5.563590    8.269299
  C     -0.792192    7.342178    8.413564
  C     -1.526685    8.443438    7.728235
  H     -1.121317    9.302318    7.705738
  C     -2.717800    8.298727    7.144286
  H     -3.116060    9.079626    6.778112
  C     -3.473740    7.037744    7.014673
  H     -4.339670    7.009127    7.404357
  C     -3.046935    5.935438    6.398299
  H     -3.617970    5.176666    6.424481
  C     -1.858772    5.415060    4.180727
  C     -2.507442    6.591160    3.443570
  H     -3.401937    6.767888    3.829289
  H     -1.954438    7.402760    3.568431
  C     -2.647607    6.297203    1.950331
  H     -3.072637    7.079521    1.494983
  C     -1.295915    6.027540    1.331483
  H     -0.721990    6.828986    1.423104
  H     -1.404152    5.834265    0.366596
  C     -0.631559    4.838699    2.021845
  H      0.269731    4.675841    1.620378
  C     -0.482246    5.154816    3.531282
  H     -0.042345    4.393057    3.985505
  H      0.092169    5.953004    3.645513
  C     -2.729810    4.142084    3.972879
  H     -2.300195    3.369635    4.418806
  H     -3.620184    4.278582    4.383598
  C     -2.894254    3.845159    2.471962
  H     -3.470055    3.036442    2.351826
  C     -3.541542    5.045760    1.768524
  H     -4.437692    5.215863    2.153342
  H     -3.650797    4.849724    0.804312
  C     -1.509027    3.588366    1.851089
  H     -1.080469    2.814931    2.296313
  H     -1.607118    3.376732    0.888958
  C     -0.459841    7.577204    9.886415
  C     -1.771457    7.855408   10.626355
  H     -2.377150    7.079069   10.523739
  H     -2.214369    8.644048   10.223876
  C     -1.525817    8.116897   12.124403
  H     -2.395287    8.300237   12.583126
  C     -0.848162    6.892562   12.762937
  H     -0.686584    7.062426   13.724759
  H     -1.439209    6.102412   12.682734
  C      0.483920    6.619138   12.052721
  H      0.917372    5.814570   12.458659
  C      0.217526    6.357366   10.562519
  H     -0.366699    5.563719   10.468170
  H      1.073860    6.162620   10.105455
  C      0.478147    8.784953   10.079583
  H      0.072233    9.587722    9.666193
  H      1.340543    8.609083    9.626344
  C      0.729390    9.049500   11.579544
  H      1.326492    9.845637   11.677689
  C     -0.590062    9.324381   12.281970
  H     -1.014756   10.128872   11.891414
  H     -0.426828    9.496877   13.243060
  C      1.406522    7.829597   12.215462
  H      2.274432    7.655275   11.772262
  H      1.575590    7.999183   13.176074
  C     -1.754486   -0.664154    5.671998
  C     -0.589612   -0.514043    6.307297
  H      0.196680   -0.601055    5.781307
  C     -0.395550   -0.224137    7.756160
  H      0.050658   -0.887510    8.269299
  C     -0.792192    0.891078    8.413564
  C     -1.526685    1.992338    7.728235
  H     -1.121317    2.851218    7.705738
  C     -2.717800    1.847627    7.144286
  H     -3.116060    2.628526    6.778112
  C     -3.473740    0.586644    7.014673
  H     -4.339670    0.558027    7.404357
  C     -3.046935   -0.515662    6.398299
  H     -3.617970   -1.274434    6.424481
  C     -1.858772   -1.036040    4.180727
  C     -2.507442    0.140060    3.443570
  H     -3.401937    0.316788    3.829289
  H     -1.954438    0.951660    3.568431
  C     -2.647607   -0.153897    1.950331
  H     -3.072637    0.628421    1.494983
  C     -1.295915   -0.423560    1.331483
  H     -0.721990    0.377886    1.423104
  H     -1.404152   -0.616835    0.366596
  C     -0.631559   -1.612401    2.021845
  H      0.269731   -1.775259    1.620378
  C     -0.482246   -1.296284    3.531282
  H     -0.042345   -2.058043    3.985505
  H      0.092169   -0.498096    3.645513
  C     -2.729810   -2.309016    3.972879
  H     -2.300195   -3.081465    4.418806
  H     -3.620184   -2.172518    4.383598
  C     -2.894254   -2.605941    2.471962
  H     -3.470055   -3.414658    2.351826
  C     -3.541542   -1.405340    1.768524
  H     -4.437692   -1.235237    2.153342
  H     -3.650797   -1.601376    0.804312
  C     -1.509027   -2.862734    1.851089
  H     -1.080469   -3.636169    2.296313
  H     -1.607118   -3.074368    0.888958
  C     -0.459841    1.126104    9.886415
  C     -1.771457    1.404308   10.626355
  H     -2.377150    0.627969   10.523739
  H     -2.214369    2.192948   10.223876
  C     -1.525817    1.665797   12.124403
  H     -2.395287    1.849137   12.583126
  C     -0.848162    0.441462   12.762937
  H     -0.686584    0.611326   13.724759
  H     -1.439209   -0.348688   12.682734
  C      0.483920    0.168038   12.052721
  H      0.917372   -0.636530   12.458659
  C      0.217526   -0.093734   10.562519
  H     -0.366699   -0.887381   10.468170
  H      1.073860   -0.288480   10.105455
  C      0.478147    2.333853   10.079583
  H      0.072233    3.136622    9.666193
  H      1.340543    2.157983    9.626344
  C      0.729390    2.598400   11.579544
  H      1.326492    3.394537   11.677689
  C     -0.590062    2.873281   12.281970
  H     -1.014756    3.677772   11.891414
  H     -0.426828    3.045777   13.243060
  C      1.406522    1.378497   12.215462
  H      2.274432    1.204175   11.772262
  H      1.575590    1.548083   13.176074
  C      9.674114    5.786946    5.671998
  C     10.838988    5.937057    6.307297
  H     11.625280    5.850045    5.781307
  C     11.033050    6.226963    7.756160
  H     11.479258    5.563590    8.269299
  C     10.636408    7.342178    8.413564
  C      9.901915    8.443438    7.728235
  H     10.307283    9.302318    7.705738
  C      8.710800    8.298727    7.144286
  H      8.312540    9.079626    6.778112
  C      7.954860    7.037744    7.014673
  H      7.088930    7.009127    7.404357
  C      8.381665    5.935438    6.398299
  H      7.810630    5.176666    6.424481
  C      9.569828    5.415060    4.180727
  C      8.921158    6.591160    3.443570
  H      8.026663    6.767888    3.829289
  H      9.474162    7.402760    3.568431
  C      8.780993    6.297203    1.950331
  H      8.355963    7.079521    1.494983
  C     10.132685    6.027540    1.331483
  H     10.706610    6.828986    1.423104
  H     10.024448    5.834265    0.366596
  C     10.797041    4.838699    2.021845
  H     11.698331    4.675841    1.620378
  C     10.946354    5.154816    3.531282
  H     11.386255    4.393057    3.985505
  H     11.520769    5.953004    3.645513
  C      8.698790    4.142084    3.972879
  H      9.128405    3.369635    4.418806
  H      7.808416    4.278582    4.383598
  C      8.534346    3.845159    2.471962
  H      7.958545    3.036442    2.351826
  C      7.887058    5.045760    1.768524
  H      6.990908    5.215863    2.153342
  H      7.777803    4.849724    0.804312
  C      9.919573    3.588366    1.851089
  H     10.348131    2.814931    2.296313
  H      9.821482    3.376732    0.888958
  C     10.968759    7.577204    9.886415
  C      9.657143    7.855408   10.626355
  H      9.051450    7.079069   10.523739
  H      9.214231    8.644048   10.223876
  C      9.902783    8.116897   12.124403
  H      9.033313    8.300237   12.583126
  C     10.580438    6.892562   12.762937
  H     10.742016    7.062426   13.724759
  H      9.989391    6.102412   12.682734
  C     11.912520    6.619138   12.052721
  H     12.345972    5.814570   12.458659
  C     11.646126    6.357366   10.562519
  H     11.061901    5.563719   10.468170
  H     12.502460    6.162620   10.105455
  C     11.906747    8.784953   10.079583
  H     11.500833    9.587722    9.666193
  H     12.769143    8.609083    9.626344
  C     12.157990    9.049500   11.579544
  H     12.755092    9.845637   11.677689
  C     10.838538    9.324381   12.281970
  H     10.413844   10.128872   11.891414
  H     11.001772    9.496877   13.243060
  C     12.835122    7.829597   12.215462
  H     13.703032    7.655275   11.772262
  H     13.004190    7.999183   13.176074
  C      3.959814   -3.889704    5.671998
  C      5.124688   -3.739593    6.307297
  H      5.910980   -3.826605    5.781307
  C      5.318750   -3.449687    7.756160
  H      5.764958   -4.113060    8.269299
  C      4.922108   -2.334472    8.413564
  C      4.187615   -1.233212    7.728235
  H      4.592983   -0.374332    7.705738
  C      2.996500   -1.377923    7.144286
  H      2.598240   -0.597024    6.778112
  C      2.240560   -2.638906    7.014673
  H      1.374630   -2.667523    7.404357
  C      2.667365   -3.741212    6.398299
  H      2.096330   -4.499984    6.424481
  C      3.855528   -4.261590    4.180727
  C      3.206858   -3.085490    3.443570
  H      2.312363   -2.908762    3.829289
  H      3.759862   -2.273890    3.568431
  C      3.066693   -3.379447    1.950331
  H      2.641663   -2.597129    1.494983
  C      4.418385   -3.649110    1.331483
  H      4.992310   -2.847664    1.423104
  H      4.310148   -3.842385    0.366596
  C      5.082741   -4.837951    2.021845
  H      5.984031   -5.000809    1.620378
  C      5.232054   -4.521834    3.531282
  H      5.671955   -5.283593    3.985505
  H      5.806469   -3.723646    3.645513
  C      2.984490   -5.534566    3.972879
  H      3.414105   -6.307015    4.418806
  H      2.094116   -5.398068    4.383598
  C      2.820046   -5.831491    2.471962
  H      2.244245   -6.640208    2.351826
  C      2.172758   -4.630890    1.768524
  H      1.276608   -4.460787    2.153342
  H      2.063503   -4.826926    0.804312
  C      4.205273   -6.088284    1.851089
  H      4.633831   -6.861719    2.296313
  H      4.107182   -6.299918    0.888958
  C      5.254459   -2.099446    9.886415
  C      3.942843   -1.821242   10.626355
  H      3.337150   -2.597581   10.523739
  H      3.499931   -1.032602   10.223876
  C      4.188483   -1.559753   12.124403
  H      3.319013   -1.376413   12.583126
  C      4.866138   -2.784088   12.762937
  H      5.027716   -2.614224   13.724759
  H      4.275091   -3.574238   12.682734
  C      6.198220   -3.057512   12.052721
  H      6.631672   -3.862080   12.458659
  C      5.931826   -3.319284   10.562519
  H      5.347601   -4.112931   10.468170
  H      6.788160   -3.514030   10.105455
  C      6.192447   -0.891697   10.079583
  H      5.786533   -0.088928    9.666193
  H      7.054843   -1.067567    9.626344
  C      6.443690   -0.627150   11.579544
  H      7.040792    0.168987   11.677689
  C      5.124238   -0.352269   12.281970
  H      4.699544    0.452222   11.891414
  H      5.287472   -0.179773   13.243060
  C      7.120822   -1.847053   12.215462
  H      7.988732   -2.021375   11.772262
  H      7.289890   -1.677467   13.176074
  C      1.754486    5.786946   -5.671998
  C      0.589612    5.937057   -6.307297
  H     -0.196680    5.850045   -5.781307
  C      0.395550    6.226963   -7.756160
  H     -0.050658    5.563590   -8.269299
  C      0.792192    7.342178   -8.413564
  C      1.526685    8.443438   -7.728235
  H      1.121317    9.302318   -7.705738
  C      2.717800    8.298727   -7.144286
  H      3.116060    9.079626   -6.778112
  C      3.473740    7.037744   -7.014673
  H      4.339670    7.009127   -7.404357
  C      3.046935    5.935438   -6.398299
  H      3.617970    5.176666   -6.424481
  C      1.858772    5.415060   -4.180727
  C      2.507442    6.591160   -3.443570
  H      3.401937    6.767888   -3.829289
  H      1.954438    7.402760   -3.568431
  C      2.647607    6.297203   -1.950331
  H      3.072637    7.079521   -1.494983
  C      1.295915    6.027540   -1.331483
  H      0.721990    6.828986   -1.423104
  H      1.404152    5.834265   -0.366596
  C      0.631559    4.838699   -2.021845
  H     -0.269731    4.675841   -1.620378
  C      0.482246    5.154816   -3.531282
  H      0.042345    4.393057   -3.985505
  H     -0.092169    5.953004   -3.645513
  C      2.729810    4.142084   -3.972879
  H      2.300195    3.369635   -4.418806
  H      3.620184    4.278582   -4.383598
  C      2.894254    3.845159   -2.471962
  H      3.470055    3.036442   -2.351826
  C      3.541542    5.045760   -1.768524
  H      4.437692    5.215863   -2.153342
  H      3.650797    4.849724   -0.804312
  C      1.509027    3.588366   -1.851089
  H      1.080469    2.814931   -2.296313
  H      1.607118    3.376732   -0.888958
  C      0.459841    7.577204   -9.886415
  C      1.771457    7.855408  -10.626355
  H      2.377150    7.079069  -10.523739
  H      2.214369    8.644048  -10.223876
  C      1.525817    8.116897  -12.124403
  H      2.395287    8.300237  -12.583126
  C      0.848162    6.892562  -12.762937
  H      0.686584    7.062426  -13.724759
  H      1.439209    6.102412  -12.682734
  C     -0.483920    6.619138  -12.052721
  H     -0.917372    5.814570  -12.458659
  C     -0.217526    6.357366  -10.562519
  H      0.366699    5.563719  -10.468170
  H     -1.073860    6.162620  -10.105455
  C     -0.478147    8.784953  -10.079583
  H     -0.072233    9.587722   -9.666193
  H     -1.340543    8.609083   -9.626344
  C     -0.729390    9.049500  -11.579544
  H     -1.326492    9.845637  -11.677689
  C      0.590062    9.324381  -12.281970
  H      1.014756   10.128872  -11.891414
  H      0.426828    9.496877  -13.243060
  C     -1.406522    7.829597  -12.215462
  H     -2.274432    7.655275  -11.772262
  H     -1.575590    7.999183  -13.176074
  C      1.754486   -0.664154   -5.671998
  C      0.589612   -0.514043   -6.307297
  H     -0.196680   -0.601055   -5.781307
  C      0.395550   -0.224137   -7.756160
  H     -0.050658   -0.887510   -8.269299
  C      0.792192    0.891078   -8.413564
  C      1.526685    1.992338   -7.728235
  H      1.121317    2.851218   -7.705738
  C      2.717800    1.847627   -7.144286
  H      3.116060    2.628526   -6.778112
  C      3.473740    0.586644   -7.014673
  H      4.339670    0.558027   -7.404357
  C      3.046935   -0.515662   -6.398299
  H      3.617970   -1.274434   -6.424481
  C      1.858772   -1.036040   -4.180727
  C      2.507442    0.140060   -3.443570
  H      3.401937    0.316788   -3.829289
  H      1.954438    0.951660   -3.568431
  C      2.647607   -0.153897   -1.950331
  H      3.072637    0.628421   -1.494983
  C      1.295915   -0.423560   -1.331483
  H      0.721990    0.377886   -1.423104
  H      1.404152   -0.616835   -0.366596
  C      0.631559   -1.612401   -2.021845
  H     -0.269731   -1.775259   -1.620378
  C      0.482246   -1.296284   -3.531282
  H      0.042345   -2.058043   -3.985505
  H     -0.092169   -0.498096   -3.645513
  C      2.729810   -2.309016   -3.972879
  H      2.300195   -3.081465   -4.418806
  H      3.620184   -2.172518   -4.383598
  C      2.894254   -2.605941   -2.471962
  H      3.470055   -3.414658   -2.351826
  C      3.541542   -1.405340   -1.768524
  H      4.437692   -1.235237   -2.153342
  H      3.650797   -1.601376   -0.804312
  C      1.509027   -2.862734   -1.851089
  H      1.080469   -3.636169   -2.296313
  H      1.607118   -3.074368   -0.888958
  C      0.459841    1.126104   -9.886415
  C      1.771457    1.404308  -10.626355
  H      2.377150    0.627969  -10.523739
  H      2.214369    2.192948  -10.223876
  C      1.525817    1.665797  -12.124403
  H      2.395287    1.849137  -12.583126
  C      0.848162    0.441462  -12.762937
  H      0.686584    0.611326  -13.724759
  H      1.439209   -0.348688  -12.682734
  C     -0.483920    0.168038  -12.052721
  H     -0.917372   -0.636530  -12.458659
  C     -0.217526   -0.093734  -10.562519
  H      0.366699   -0.887381  -10.468170
  H     -1.073860   -0.288480  -10.105455
  C     -0.478147    2.333853  -10.079583
  H     -0.072233    3.136622   -9.666193
  H     -1.340543    2.157983   -9.626344
  C     -0.729390    2.598400  -11.579544
  H     -1.326492    3.394537  -11.677689
  C      0.590062    2.873281  -12.281970
  H      1.014756    3.677772  -11.891414
  H      0.426828    3.045777  -13.243060
  C     -1.406522    1.378497  -12.215462
  H     -2.274432    1.204175  -11.772262
  H     -1.575590    1.548083  -13.176074
  C      8.845181    5.786946   22.449799
  C      7.680306    5.937057   21.814500
  H      6.894014    5.850045   22.340490
  C      7.486244    6.226963   20.365637
  H      7.040037    5.563590   19.852498
  C      7.882887    7.342178   19.708233
  C      8.617380    8.443438   20.393561
  H      8.212011    9.302318   20.416059
  C      9.808495    8.298727   20.977511
  H     10.206755    9.079626   21.343684
  C     10.564435    7.037744   21.107124
  H     11.430364    7.009127   20.717440
  C     10.137630    5.935438   21.723497
  H     10.708664    5.176666   21.697316
  C      8.949467    5.415060   23.941070
  C      9.598136    6.591160   24.678227
  H     10.492631    6.767888   24.292508
  H      9.045132    7.402760   24.553366
  C      9.738301    6.297203   26.171466
  H     10.163332    7.079521   26.626814
  C      8.386610    6.027540   26.790314
  H      7.812684    6.828986   26.698693
  H      8.494847    5.834265   27.755201
  C      7.722253    4.838699   26.099952
  H      6.820963    4.675841   26.501419
  C      7.572941    5.154816   24.590515
  H      7.133040    4.393057   24.136291
  H      6.998526    5.953004   24.476284
  C      9.820505    4.142084   24.148918
  H      9.390889    3.369635   23.702991
  H     10.710879    4.278582   23.738199
  C      9.984949    3.845159   25.649835
  H     10.560750    3.036442   25.769971
  C     10.632236    5.045760   26.353273
  H     11.528387    5.215863   25.968455
  H     10.741492    4.849724   27.317485
  C      8.599722    3.588366   26.270708
  H      8.171164    2.814931   25.825483
  H      8.697812    3.376732   27.232839
  C      7.550536    7.577204   18.235382
  C      8.862152    7.855408   17.495442
  H      9.467845    7.079069   17.598058
  H      9.305063    8.644048   17.897921
  C      8.616511    8.116897   15.997393
  H      9.485982    8.300237   15.538671
  C      7.938857    6.892562   15.358860
  H      7.777278    7.062426   14.397038
  H      8.529904    6.102412   15.439063
  C      6.606774    6.619138   16.069076
  H      6.173322    5.814570   15.663138
  C      6.873169    6.357366   17.559278
  H      7.457394    5.563719   17.653627
  H      6.016834    6.162620   18.016342
  C      6.612548    8.784953   18.042214
  H      7.018462    9.587722   18.455604
  H      5.750152    8.609083   18.495453
  C      6.361304    9.049500   16.542253
  H      5.764202    9.845637   16.444108
  C      7.680757    9.324381   15.839827
  H      8.105450   10.128872   16.230383
  H      7.517523    9.496877   14.878736
  C      5.684173    7.829597   15.906335
  H      4.816262    7.655275   16.349535
  H      5.515105    7.999183   14.945723
  C      8.845181   -0.664154   22.449799
  C      7.680306   -0.514043   21.814500
  H      6.894014   -0.601055   22.340490
  C      7.486244   -0.224137   20.365637
  H      7.040037   -0.887510   19.852498
  C      7.882887    0.891078   19.708233
  C      8.617380    1.992338   20.393561
  H      8.212011    2.851218   20.416059
  C      9.808495    1.847627   20.977511
  H     10.206755    2.628526   21.343684
  C     10.564435    0.586644   21.107124
  H     11.430364    0.558027   20.717440
  C     10.137630   -0.515662   21.723497
  H     10.708664   -1.274434   21.697316
  C      8.949467   -1.036040   23.941070
  C      9.598136    0.140060   24.678227
  H     10.492631    0.316788   24.292508
  H      9.045132    0.951660   24.553366
  C      9.738301   -0.153897   26.171466
  H     10.163332    0.628421   26.626814
  C      8.386610   -0.423560   26.790314
  H      7.812684    0.377886   26.698693
  H      8.494847   -0.616835   27.755201
  C      7.722253   -1.612401   26.099952
  H      6.820963   -1.775259   26.501419
  C      7.572941   -1.296284   24.590515
  H      7.133040   -2.058043   24.136291
  H      6.998526   -0.498096   24.476284
  C      9.820505   -2.309016   24.148918
  H      9.390889   -3.081465   23.702991
  H     10.710879   -2.172518   23.738199
  C      9.984949   -2.605941   25.649835
  H     10.560750   -3.414658   25.769971
  C     10.632236   -1.405340   26.353273
  H     11.528387   -1.235237   25.968455
  H     10.741492   -1.601376   27.317485
  C      8.599722   -2.862734   26.270708
  H      8.171164   -3.636169   25.825483
  H      8.697812   -3.074368   27.232839
  C      7.550536    1.126104   18.235382
  C      8.862152    1.404308   17.495442
  H      9.467845    0.627969   17.598058
  H      9.305063    2.192948   17.897921
  C      8.616511    1.665797   15.997393
  H      9.485982    1.849137   15.538671
  C      7.938857    0.441462   15.358860
  H      7.777278    0.611326   14.397038
  H      8.529904   -0.348688   15.439063
  C      6.606774    0.168038   16.069076
  H      6.173322   -0.636530   15.663138
  C      6.873169   -0.093734   17.559278
  H      7.457394   -0.887381   17.653627
  H      6.016834   -0.288480   18.016342
  C      6.612548    2.333853   18.042214
  H      7.018462    3.136622   18.455604
  H      5.750152    2.157983   18.495453
  C      6.361304    2.598400   16.542253
  H      5.764202    3.394537   16.444108
  C      7.680757    2.873281   15.839827
  H      8.105450    3.677772   16.230383
  H      7.517523    3.045777   14.878736
  C      5.684173    1.378497   15.906335
  H      4.816262    1.204175   16.349535
  H      5.515105    1.548083   14.945723

----------------------------
CARTESIAN COORDINATES (A.U.)
----------------------------
  NO LB      ZA    FRAG     MASS         X           Y           Z
   0 C     6.0000    1    12.011    7.482964    4.840337   10.718523
   1 C     6.0000    1    12.011    9.684257    5.124006   11.919064
   2 H     1.0000    1     1.008   11.170133    4.959577   10.925087
   3 C     6.0000    1    12.011   10.050981    5.671849   14.657018
   4 H     1.0000    1     1.008   10.894192    4.418255   15.626710
   5 C     6.0000    1    12.011    9.301436    7.779300   15.899332
   6 C     6.0000    1    12.011    7.913446    9.860379   14.604248
   7 H     1.0000    1     1.008    8.679480   11.483427   14.561734
   8 C     6.0000    1    12.011    5.662564    9.586915   13.500744
   9 H     1.0000    1     1.008    4.909962   11.062600   12.808775
  10 C     6.0000    1    12.011    4.234045    7.204003   13.255811
  11 H     1.0000    1     1.008    2.597674    7.149924   13.992207
  12 C     6.0000    1    12.011    5.040589    5.120946   12.091033
  13 H     1.0000    1     1.008    3.961490    3.687075   12.140510
  14 C     6.0000    1    12.011    7.285892    4.137574    7.900429
  15 C     6.0000    1    12.011    6.060083    6.360081    6.507404
  16 H     1.0000    1     1.008    4.369733    6.694049    7.236307
  17 H     1.0000    1     1.008    7.105109    7.893783    6.743357
  18 C     6.0000    1    12.011    5.795210    5.804583    3.685591
  19 H     1.0000    1     1.008    4.992020    7.282950    2.825108
  20 C     6.0000    1    12.011    8.349538    5.294994    2.516138
  21 H     1.0000    1     1.008    9.434099    6.809507    2.689277
  22 H     1.0000    1     1.008    8.144999    4.929757    0.692766
  23 C     6.0000    1    12.011    9.604988    3.048410    3.820733
  24 H     1.0000    1     1.008   11.308180    2.740653    3.062071
  25 C     6.0000    1    12.011    9.887149    3.645784    6.673156
  26 H     1.0000    1     1.008   10.718442    2.206268    7.531513
  27 H     1.0000    1     1.008   10.972636    5.154141    6.889021
  28 C     6.0000    1    12.011    5.639869    1.731998    7.507653
  29 H     1.0000    1     1.008    6.451723    0.272281    8.350333
  30 H     1.0000    1     1.008    3.957306    1.989942    8.283800
  31 C     6.0000    1    12.011    5.329115    1.170891    4.671331
  32 H     1.0000    1     1.008    4.241008   -0.357362    4.444307
  33 C     6.0000    1    12.011    4.105918    3.439698    3.342026
  34 H     1.0000    1     1.008    2.412440    3.761146    4.069227
  35 H     1.0000    1     1.008    3.899456    3.069244    1.519929
  36 C     6.0000    1    12.011    7.946814    0.685623    3.498051
  37 H     1.0000    1     1.008    8.756672   -0.775957    4.339403
  38 H     1.0000    1     1.008    7.761449    0.285693    1.679887
  39 C     6.0000    1    12.011    9.929488    8.223434   18.682617
  40 C     6.0000    1    12.011    7.450893    8.749164   20.080901
  41 H     1.0000    1     1.008    6.306300    7.282096   19.886985
  42 H     1.0000    1     1.008    6.613911   10.239477   19.320326
  43 C     6.0000    1    12.011    7.915086    9.243306   22.911801
  44 H     1.0000    1     1.008    6.272026    9.589769   23.778662
  45 C     6.0000    1    12.011    9.195668    6.929648   24.118456
  46 H     1.0000    1     1.008    9.501006    7.250645   25.936036
  47 H     1.0000    1     1.008    8.078751    5.436481   23.966894
  48 C     6.0000    1    12.011   11.712938    6.412952   22.776342
  49 H     1.0000    1     1.008   12.532044    4.892539   23.543454
  50 C     6.0000    1    12.011   11.209527    5.918275   19.960268
  51 H     1.0000    1     1.008   10.105501    4.418499   19.781974
  52 H     1.0000    1     1.008   12.827763    5.550258   19.096542
  53 C     6.0000    1    12.011   11.702029   10.505749   19.047651
  54 H     1.0000    1     1.008   10.934963   12.022763   18.266458
[...]
B(540-C ,545-C ) :   0.1452 B(540-C ,548-C ) :   0.1389 B(543-C ,544-H ) :   0.9682 
B(543-C ,545-C ) :   0.8324 B(543-C ,548-C ) :   0.8122 B(545-C ,546-H ) :   1.0013 
B(545-C ,547-H ) :   0.9498 B(545-C ,548-C ) :   0.1631 B(548-C ,549-H ) :   1.0046 
B(548-C ,550-H ) :   0.9585 B(551-C ,552-C ) :   0.8929 B(551-C ,562-C ) :   0.9768 
B(551-C ,565-C ) :   0.9011 B(552-C ,553-H ) :   0.9914 B(552-C ,554-H ) :   0.9918 
B(552-C ,555-C ) :   0.8713 B(552-C ,557-C ) :   0.1077 B(552-C ,562-C ) :   0.1214 
B(552-C ,565-C ) :   0.1386 B(552-C ,570-C ) :   0.1274 B(555-C ,556-H ) :   0.9744 
B(555-C ,557-C ) :   0.8626 B(555-C ,570-C ) :   0.8340 B(557-C ,558-H ) :   0.9974 
B(557-C ,559-H ) :   0.9971 B(557-C ,560-C ) :   0.8770 B(557-C ,562-C ) :   0.1051 
B(557-C ,570-C ) :   0.1361 B(557-C ,573-C ) :   0.1138 B(560-C ,561-H ) :   0.9705 
B(560-C ,562-C ) :   0.9007 B(560-C ,573-C ) :   0.8995 B(562-C ,563-H ) :   0.9953 
B(562-C ,564-H ) :   0.9932 B(562-C ,565-C ) :   0.1420 B(562-C ,573-C ) :   0.1029 
B(565-C ,566-H ) :   0.9711 B(565-C ,567-H ) :   0.9884 B(565-C ,568-C ) :   0.8909 
B(565-C ,570-C ) :   0.1496 B(565-C ,573-C ) :   0.1112 B(568-C ,569-H ) :   0.9678 
B(568-C ,570-C ) :   0.8688 B(568-C ,573-C ) :   0.8804 B(570-C ,571-H ) :   0.9831 
B(570-C ,572-H ) :   0.9932 B(570-C ,573-C ) :   0.1252 B(573-C ,574-H ) :   0.9971 
B(573-C ,575-H ) :   0.9976 B(576-C ,577-C ) :   1.9274 B(576-C ,588-C ) :   1.0920 
B(576-C ,590-C ) :   0.8201 B(577-C ,578-H ) :   1.0029 B(577-C ,579-C ) :   0.8561 
B(579-C ,580-H ) :   0.9469 B(579-C ,581-C ) :   1.9050 B(581-C ,582-C ) :   0.9858 
B(581-C ,615-C ) :   0.8203 B(582-C ,583-H ) :   0.9995 B(582-C ,584-C ) :   1.9982 
B(584-C ,585-H ) :   0.9884 B(584-C ,586-C ) :   0.9020 B(586-C ,587-H ) :   0.9924 
B(586-C ,588-C ) :   1.9906 B(588-C ,589-H ) :   0.9817 B(590-C ,591-C ) :   0.8862 
B(590-C ,601-C ) :   0.9719 B(590-C ,604-C ) :   0.8757 B(591-C ,592-H ) :   0.9920 
B(591-C ,593-H ) :   0.9945 B(591-C ,594-C ) :   0.9081 B(591-C ,596-C ) :   0.1088 
B(591-C ,601-C ) :   0.1318 B(591-C ,604-C ) :   0.1161 B(591-C ,609-C ) :   0.1040 
B(594-C ,595-H ) :   0.9726 B(594-C ,596-C ) :   0.8875 B(594-C ,609-C ) :   0.8987 
B(596-C ,597-H ) :   0.9965 B(596-C ,598-H ) :   0.9979 B(596-C ,599-C ) :   0.8539 
B(596-C ,601-C ) :   0.1137 B(596-C ,609-C ) :   0.1148 B(596-C ,612-C ) :   0.1386 
B(599-C ,600-H ) :   0.9707 B(599-C ,601-C ) :   0.8681 B(599-C ,612-C ) :   0.8303 
B(601-C ,602-H ) :   0.9979 B(601-C ,603-H ) :   0.9913 B(601-C ,604-C ) :   0.1333 
B(601-C ,612-C ) :   0.1296 B(604-C ,605-H ) :   0.9754 B(604-C ,606-H ) :   0.9837 
B(604-C ,607-C ) :   0.9028 B(604-C ,609-C ) :   0.1144 B(604-C ,612-C ) :   0.1407 
B(607-C ,608-H ) :   0.9668 B(607-C ,609-C ) :   0.8701 B(607-C ,612-C ) :   0.8835 
B(609-C ,610-H ) :   0.9977 B(609-C ,611-H ) :   0.9985 B(609-C ,612-C ) :   0.1209 
B(612-C ,613-H ) :   0.9836 B(612-C ,614-H ) :   0.9931 B(615-C ,616-C ) :   0.8867 
B(615-C ,626-C ) :   0.9789 B(615-C ,629-C ) :   0.8745 B(616-C ,617-H ) :   0.9915 
B(616-C ,618-H ) :   0.9914 B(616-C ,619-C ) :   0.8497 B(616-C ,621-C ) :   0.1624 
B(616-C ,626-C ) :   0.1791 B(616-C ,629-C ) :   0.1026 B(616-C ,634-C ) :   0.1763 
B(619-C ,620-H ) :   0.9696 B(619-C ,621-C ) :   0.7272 B(619-C ,634-C ) :   0.7113 
B(621-C ,622-H ) :   0.9409 B(621-C ,623-H ) :   0.9942 B(621-C ,624-C ) :   0.7454 
B(621-C ,626-C ) :   0.1978 B(621-C ,634-C ) :   0.2519 B(621-C ,637-C ) :   0.2095 
B(624-C ,625-H ) :   0.9698 B(624-C ,626-C ) :   0.8546 B(624-C ,637-C ) :   0.7669 
B(626-C ,627-H ) :   0.9825 B(626-C ,628-H ) :   0.9883 B(626-C ,629-C ) :   0.1944 
B(626-C ,637-C ) :   0.1578 B(629-C ,630-H ) :   0.9907 B(629-C ,631-H ) :   0.9879 
B(629-C ,632-C ) :   0.9130 B(629-C ,634-C ) :   0.1597 B(629-C ,637-C ) :   0.1306 
B(632-C ,633-H ) :   0.9674 B(632-C ,634-C ) :   0.7737 B(632-C ,637-C ) :   0.8645 
B(634-C ,635-H ) :   1.0066 B(634-C ,636-H ) :   0.9523 B(634-C ,637-C ) :   0.1772 
B(637-C ,638-H ) :   0.9971 B(637-C ,639-H ) :   0.9575 B(640-C ,641-C ) :   1.9582 
B(640-C ,652-C ) :   1.0074 B(640-C ,654-C ) :   0.8282 B(641-C ,642-H ) :   0.9860 
B(641-C ,643-C ) :   0.8562 B(643-C ,644-H ) :   0.9929 B(643-C ,645-C ) :   1.9409 
B(645-C ,646-C ) :   1.0253 B(645-C ,679-C ) :   0.8018 B(646-C ,647-H ) :   0.9230 
B(646-C ,648-C ) :   2.0724 B(646-C ,650-C ) :   0.1168 B(648-C ,649-H ) :   0.9331 
B(648-C ,650-C ) :   0.9178 B(650-C ,651-H ) :   0.9914 B(650-C ,652-C ) :   1.9810 
B(652-C ,653-H ) :   1.0040 B(654-C ,655-C ) :   0.8734 B(654-C ,665-C ) :   0.9576 
B(654-C ,668-C ) :   0.8976 B(655-C ,656-H ) :   0.9907 B(655-C ,657-H ) :   0.9786 
B(655-C ,658-C ) :   0.8767 B(655-C ,660-C ) :   0.1391 B(655-C ,665-C ) :   0.1735 
B(655-C ,668-C ) :   0.1343 B(655-C ,673-C ) :   0.1236 B(658-C ,659-H ) :   0.9732 
B(658-C ,660-C ) :   0.8613 B(658-C ,673-C ) :   0.8686 B(660-C ,661-H ) :   0.9932 
B(660-C ,662-H ) :   0.9966 B(660-C ,663-C ) :   0.8850 B(660-C ,665-C ) :   0.1093 
B(660-C ,673-C ) :   0.1184 B(660-C ,676-C ) :   0.1188 B(663-C ,664-H ) :   0.9704 
B(663-C ,665-C ) :   0.8969 B(663-C ,676-C ) :   0.8760 B(665-C ,666-H ) :   0.9940 
B(665-C ,667-H ) :   0.9934 B(665-C ,668-C ) :   0.1005 B(665-C ,676-C ) :   0.1032 
B(668-C ,669-H ) :   0.9936 B(668-C ,670-H ) :   0.9861 B(668-C ,671-C ) :   0.9356 
B(671-C ,672-H ) :   0.9709 B(671-C ,673-C ) :   0.9052 B(671-C ,676-C ) :   0.8962 
B(673-C ,674-H ) :   0.9966 B(673-C ,675-H ) :   0.9987 B(673-C ,676-C ) :   0.1122 
B(676-C ,677-H ) :   0.9958 B(676-C ,678-H ) :   0.9965 B(679-C ,680-C ) :   0.9061 
B(679-C ,690-C ) :   1.0072 B(679-C ,693-C ) :   0.8962 B(680-C ,681-H ) :   0.9903 
B(680-C ,682-H ) :   0.9942 B(680-C ,683-C ) :   0.8088 B(680-C ,685-C ) :   0.1596 
B(680-C ,690-C ) :   0.1277 B(680-C ,693-C ) :   0.1691 B(680-C ,698-C ) :   0.2083 
B(683-C ,684-H ) :   0.9701 B(683-C ,685-C ) :   0.7339 B(683-C ,698-C ) :   0.6364 
B(685-C ,686-H ) :   0.9455 B(685-C ,687-H ) :   1.0032 B(685-C ,688-C ) :   0.7181 
B(685-C ,690-C ) :   0.1754 B(685-C ,698-C ) :   0.2800 B(685-C ,701-C ) :   0.2063 
B(688-C ,689-H ) :   0.9628 B(688-C ,690-C ) :   0.8668 B(688-C ,701-C ) :   0.7762 
B(690-C ,691-H ) :   0.9910 B(690-C ,692-H ) :   0.9929 B(690-C ,693-C ) :   0.1585 
B(690-C ,701-C ) :   0.1539 B(693-C ,694-H ) :   0.9705 B(693-C ,695-H ) :   0.9889 
B(693-C ,696-C ) :   0.8461 B(693-C ,698-C ) :   0.2412 B(693-C ,701-C ) :   0.1452 
B(696-C ,697-H ) :   0.9660 B(696-C ,698-C ) :   0.7299 B(696-C ,701-C ) :   0.8208 
B(698-C ,699-H ) :   0.9893 B(698-C ,700-H ) :   0.9234 B(698-C ,701-C ) :   0.2003 
B(701-C ,702-H ) :   0.9964 B(701-C ,703-H ) :   0.9602 



--------------------------------------------------------------------------------
                                    TIMINGS
--------------------------------------------------------------------------------


Total execution time                   ...   150092.019 sec

Localization of occupied MO's          ...     1583.976 sec (  1.1%)
Fock Matrix Formation                  ...    13321.778 sec (  8.9%)
Global overlap, Fock, MKN matrices     ...      318.768 sec (  0.2%)
Differential overlap integrals         ...     1103.614 sec (  0.7%)
Organizing maps                        ...        7.240 sec (  0.0%)
RI 3-index integral generations        ...    75907.394 sec ( 50.6%)
RI-PNO integral transformation         ...     1255.018 sec (  0.8%)
Initial Guess                          ...     1985.274 sec (  1.3%)
DIIS Solver                            ...        1.912 sec (  0.0%)
State Vector Update                    ...        0.227 sec (  0.0%)
Sigma-vector construction              ...      242.697 sec (  0.2%)
  <0|H|S>                              ...        0.001 sec (  0.0% of sigma)
  <D|H|D>(0-ext)                       ...       41.631 sec ( 17.2% of sigma)
  <D|H|D>(2-ext Fock)                  ...        0.014 sec (  0.0% of sigma)
  <D|H|D>(2-ext)                       ...        3.557 sec (  1.5% of sigma)
  <D|H|D>(4-ext)                       ...        0.029 sec (  0.0% of sigma)
  <D|H|D>(4-ext-corr)                  ...        0.515 sec (  0.2% of sigma)
  CCSD doubles correction              ...        1.029 sec (  0.4% of sigma)
  <S|H|S>                              ...       52.847 sec ( 21.8% of sigma)
  <S|H|D>(1-ext)                       ...       12.058 sec (  5.0% of sigma)
  <D|H|S>(1-ext)                       ...        0.062 sec (  0.0% of sigma)
  <S|H|D>(3-ext)                       ...        0.079 sec (  0.0% of sigma)
  CCSD singles correction              ...        0.047 sec (  0.0% of sigma)
  Fock-dressing                        ...       78.836 sec ( 32.5% of sigma)
  Singles amplitudes                   ...        9.113 sec (  3.8% of sigma)
  (ik|jl)-dressing                     ...       36.998 sec ( 15.2% of sigma)
  (ij|ab),(ia|jb)-dressing             ...        0.339 sec (  0.1% of sigma)
  Pair energies                        ...        0.271 sec (  0.1% of sigma)
One-particle density matrix            ...      283.007 sec (  0.2%)
Local Energy Decomposition             ...    51147.426 sec ( 34.1% of ALL)


Maximum memory used throughout the entire MDCI-calculation: 78302.3 MB

-------------------------   --------------------
FINAL SINGLE POINT ENERGY    -11894.131230580499
-------------------------   --------------------


                            ***************************************
                            *     ORCA property calculations      *
                            ***************************************

                                    ---------------------
                                    Active property flags
                                    ---------------------
   (+) Dipole Moment


------------------------------------------------------------------------------
                       ORCA ELECTRIC PROPERTIES CALCULATION
------------------------------------------------------------------------------

Dipole Moment Calculation                       ... ON
Quadrupole Moment Calculation                   ... OFF
Polarizability Calculation                      ... OFF
Atomic Dipole Moment Calculation                ... OFF
Atomic Quadrupole Moment Calculation            ... OFF
Atomic Polarizability Calculation               ... OFF
GBWName                                         ... dimer.gbw
Electron density                                ... dimer.scfp

The origin for moment calculation is the CENTER OF MASS  = ( 8.643041,  6.341427 13.290683)

-------------
DIPOLE MOMENT
-------------
                                X             Y             Z
Electronic contribution:     -5.11031      10.97972       0.04730
Nuclear contribution   :      4.95164     -10.48537      -0.08942
                        -----------------------------------------
Total Dipole Moment    :     -0.15867       0.49435      -0.04212
                        -----------------------------------------
Magnitude (a.u.)       :      0.52089
Magnitude (Debye)      :      1.32401



--------------------
Rotational spectrum 
--------------------
 
Rotational constants in cm-1:     0.000137     0.000039     0.000037 
Rotational constants in MHz :     4.114883     1.171324     1.115549 

 Dipole components along the rotational axes: 
x,y,z [a.u.] :    -0.075553     0.498957     0.129092 
x,y,z [Debye]:    -0.192040     1.268248     0.328127 

 

                           *** MDCI DENSITY ***

------------------------------------------------------------------------------
                       ORCA ELECTRIC PROPERTIES CALCULATION
------------------------------------------------------------------------------

Dipole Moment Calculation                       ... ON
Quadrupole Moment Calculation                   ... OFF
Polarizability Calculation                      ... OFF
Atomic Dipole Moment Calculation                ... OFF
Atomic Quadrupole Moment Calculation            ... OFF
Atomic Polarizability Calculation               ... OFF
GBWName                                         ... dimer.gbw
Electron density                                ... dimer.mdcip

The origin for moment calculation is the CENTER OF MASS  = ( 8.643041,  6.341427 13.290683)

-------------
DIPOLE MOMENT
-------------
                                X             Y             Z
Electronic contribution:     -5.08809      10.97783       0.04594
Nuclear contribution   :      4.95164     -10.48537      -0.08942
                        -----------------------------------------
Total Dipole Moment    :     -0.13645       0.49246      -0.04348
                        -----------------------------------------
Magnitude (a.u.)       :      0.51286
Magnitude (Debye)      :      1.30358



--------------------
Rotational spectrum 
--------------------
 
Rotational constants in cm-1:     0.000137     0.000039     0.000037 
Rotational constants in MHz :     4.114883     1.171324     1.115549 

 Dipole components along the rotational axes: 
x,y,z [a.u.] :    -0.070837     0.496460     0.107395 
x,y,z [Debye]:    -0.180052     1.261902     0.272978 

 

--------------------------------
SUGGESTED CITATIONS FOR THIS RUN
--------------------------------

Below you find a list of papers that are relevant to this ORCA run
We neither can nor want to force you to cite these paper, but we appreciate if you do
You receive ORCA, which is the product of a lot of hard work by many enthusiastic individuals, for free
The only thing we kindly ask in return is that you cite our papers,
We deeply appreciate it, if you show your appreciation for ORCA by not just citing the generic ORCA reference.

Please note that relegating all ORCA citations to the supporting information does *not* help us.
SI sections are not indexed - citations you put there will not count into any citation statistics
But we need these citations in order to attract the funding resources that allow us to do what we are doing

Therefore, if you are a happy ORCA user, please consider citing a few of the papers listed below in the main body of your paper

In addition to the list printed below, the program has created the file dimer.bibtex that contains the list in bibtex format
You can import this file easily into all common literature databanks and citation aid programs


List of essential papers. We consider these as the minimum necessary citations

  1. Neese,F.
     Software update: the ORCA program system, version 5.0
     WIRES Comput. Molec. Sci., 2022 12(1)e1606
     doi.org/10.1002/wcms.1606

List of papers to cite with high priority. The work reported in these papers was absolutely
necessary for this run to complete.
Our perspective: the developers of density functionals and basis sets usually get cited in chemistry papers
Good! But without the algorithms to do something with them, the functionals or basis sets would not do anything.
Hence, in our opinion, the algorithm design and method developments papers are equally worthy of getting cited

  1. Neese,F.
     An improvement of the resolution of the identity approximation for the formation of the Coulomb matrix
     J. Comp. Chem., 2003 24(14)1740-1747
     doi.org/10.1002/jcc.10318
  2. Neese,F.; Wennmohs,F.; Hansen,A.; Becker,U.
     Efficient, approximate and parallel Hartree-Fock and hybrid DFT calculations. A 'chain-of-spheres' algorithm for the Hartree-Fock exchange
     Chem. Phys., 2009 356(1-3)98-109
     doi.org/10.1016/j.chemphys.2008.10.036
  3. Neese,F.; Hansen,A.; Liakos,D.G.
     Efficient and accurate approximations to the local coupled cluster singles doubles method using a truncated pair natural orbital basis
     J. Chem. Phys., 2009 131 064103
     doi.org/10.1063/1.3173827
  4. Neese,F.; Wennmohs,F.; Hansen,A.
     Efficient and accurate local approximations to coupled-electron pair approaches: An attempt to revive the pair natural orbital method
     J. Chem. Phys., 2009 130 114108
     doi.org/10.1063/1.3086717
  5. Riplinger,C.; Neese,F.
     An efficient and near linear scaling pair natural orbital based local coupled cluster method
     J. Chem. Phys., 2013 138(3)Art. No. 034106
     doi.org/10.1063/1.4773581
  6. Datta,D.; Kossmann,S.; Neese,F.
     Analytic energy derivatives for the calculation of the first-order molecular properties using the domain-based local pair-natural orbital coupled-cluster theory
     J. Chem. Phys., 2016 145 
     doi.org/10.1063/1.4962369
  7. Riplinger,C.; Pinski,P.; Becker,U.; Valeev,E.F.; Neese,F.
     Sparse maps-A systematic infrastructure for reduced-scaling electronic structure methods. II. Linear scaling domain based pair natural orbital coupled cluster theory
     J. Chem. Phys., 2016 144 
     doi.org/10.1063/1.4939030
  8. Schneider,W.B.; Bistoni,G.; Sparta,M.; Saitow,M.; Riplinger,C.; Auer,A.A.; Neese,F.
     Decomposition of Intermolecular Interaction Energies within the Local Pair Natural Orbital Coupled Cluster Framework
     J. Theo. Comp. Chem., 2016 12 4778-4792
     doi.org/10.1021/acs.jctc.6b00523
  9. Bistoni,G.; Riplinger,C.; Minenkov,Y.; Cavallo,L.; Auer,A.A.; Neese,F.
     Treating Subvalence Correlation Effects in Domain Based Pair Natural Orbital Coupled Cluster Calculations: An Out-of-the-Box Approach
     J. Theo. Comp. Chem., 2017 13 3220-3227
     doi.org/10.1021/acs.jctc.7b00352
 10. Helmich-Paris,B.; de Souza,B.; Neese,F.; Izsk,R.
     An improved chain of spheres for exchange algorithm
     J. Chem. Phys., 2021 155 104109
     doi.org/doi: 10.1063/5.0058766.
 11. Neese,F.
     The SHARK Integral Generation and Digestion System
     J. Comp. Chem., 2022  1-16
     doi.org/10.1002/jcc.26942

List of suggested additional citations. These are papers that are important in the 'surrounding' of 
of this run, or papers that preceded the highly important papers. If you like your results we are grateful for a citation.

  1. Izsak,R.; Neese,F.
     An overlap fitted chain of spheres exchange method
     J. Chem. Phys., 2011 135 144105
     doi.org/10.1063/1.3646921
  2. Izsak,R.; Hansen,A.; Neese,F.
     The resolution of identity and chain of spheres approximations for the LPNO-CCSD singles Fock term
     Molec. Phys., 2012 110 2413-2417
     doi.org/10.1080/00268976.2012.687466
  3. Neese,F.
     The ORCA program system
     WIRES Comput. Molec. Sci., 2012 2(1)73-78
     doi.org/10.1002/wcms.81
  4. Izsak,R.; Neese,F.; Klopper,W.
     Robust fitting techniques in the chain of spheres approximation to the Fock exchange: The role of the complementary space
     J. Chem. Phys., 2013 139 
     doi.org/10.1063/1.4819264
  5. Neese,F.
     Software update: the ORCA program system, version 4.0
     WIRES Comput. Molec. Sci., 2018 8(1)1-6
     doi.org/10.1002/wcms.1327
  6. Neese,F.; Wennmohs,F.; Becker,U.; Riplinger,C.
     The ORCA quantum chemistry program package
     J. Chem. Phys., 2020 152 Art. No. L224108
     doi.org/10.1063/5.0004608
  7. Bistoni,G.
     Finding chemical concepts in the Hilbert space: Coupled cluster analyses of noncovalent interactions
     WIRES Comput. Molec. Sci., 2020 10(3)e1442
     doi.org/10.1002/wcms.1442

List of optional additional citations

  1. Neese,F.
     Approximate second-order SCF convergence for spin unrestricted wavefunctions
     Chem. Phys. Lett., 2000 325(1-3)93-98
     doi.org/10.1016/s0009-2614(00)00662-x

Timings for individual modules:

Sum of individual times          ...   163837.497 sec (=2730.625 min)
GTO integral calculation         ...      658.403 sec (=  10.973 min)   0.4 %
SCF iterations                   ...    12894.406 sec (= 214.907 min)   7.9 %
Property integrals               ...       89.896 sec (=   1.498 min)   0.1 %
MDCI module                      ...   150194.792 sec (=2503.247 min)  91.7 %
                             ****ORCA TERMINATED NORMALLY****
TOTAL RUN TIME: 1 days 21 hours 30 minutes 52 seconds 336 msec
