                                 *****************
                                 * O   R   C   A *
                                 *****************

                                            #,                                       
                                            ###                                      
                                            ####                                     
                                            #####                                    
                                            ######                                   
                                           ########,                                 
                                     ,,################,,,,,                         
                               ,,#################################,,                 
                          ,,##########################################,,             
                       ,#########################################, ''#####,          
                    ,#############################################,,   '####,        
                  ,##################################################,,,,####,       
                ,###########''''           ''''###############################       
              ,#####''   ,,,,##########,,,,          '''####'''          '####       
            ,##' ,,,,###########################,,,                        '##       
           ' ,,###''''                  '''############,,,                           
         ,,##''                                '''############,,,,        ,,,,,,###''
      ,#''                                            '''#######################'''  
     '                                                          ''''####''''         
             ,#######,   #######,   ,#######,      ##                                
            ,#'     '#,  ##    ##  ,#'     '#,    #''#        ,####,   ,####,        
            ##       ##  ##   ,#'  ##            #'  '#       #'       #'  '#        
            ##       ##  #######   ##           ,######,      #####,   #    #        
            '#,     ,#'  ##    ##  '#,     ,#' ,#      #,     #,   #   #,  ,#        
             '#######'   ##     ##  '#######'  #'      '#     '####' # '####'.alpha  



                  #######################################################
                  #                        -***-                        #
                  #          Department of theory and spectroscopy      #
                  #    Directorship and core code : Frank Neese         #
                  #        Max Planck Institute fuer Kohlenforschung    #
                  #                Kaiser Wilhelm Platz 1               #
                  #                 D-45470 Muelheim/Ruhr               #
                  #                      Germany                        #
                  #                                                     #
                  #                  All rights reserved                #
                  #                        -***-                        #
                  #######################################################


                         Program Version 6.0  -  CURRENT   -
                                (GIT: $c308fa1697$)
                ($2024-01-11 19:20:57 +0100 $)

                  !                     WARNING:                         !
                  !         This is a DEVELOPMENT version                !

                         (BUILD: $Fr 12. Jan 00:10:32 CET 2024$)


 With contributions from (in alphabetic order):
   Daniel Aravena         : Magnetic Suceptibility
   Michael Atanasov       : Ab Initio Ligand Field Theory (pilot matlab implementation)
   Alexander A. Auer      : GIAO ZORA, VPT2 properties, NMR spectrum
   Ute Becker             : Parallelization
   Giovanni Bistoni       : ED, misc. LED, open-shell LED, HFLD
   Martin Brehm           : Molecular dynamics
   Dmytro Bykov           : SCF Hessian
   Vijay G. Chilkuri      : MRCI spin determinant printing, contributions to CSF-ICE
   Dipayan Datta          : RHF DLPNO-CCSD density
   Achintya Kumar Dutta   : EOM-CC, STEOM-CC
   Dmitry Ganyushin       : Spin-Orbit,Spin-Spin,Magnetic field MRCI
   Miquel Garcia          : C-PCM and meta-GGA Hessian, CCSD/C-PCM, Gaussian charge scheme
   Yang Guo               : DLPNO-NEVPT2, F12-NEVPT2, CIM, IAO-localization
   Andreas Hansen         : Spin unrestricted coupled pair/coupled cluster methods
   Benjamin Helmich-Paris : MC-RPA, TRAH-(SCF,CASSCF), AVAS, COSX integrals, SCF dyn. polar.
   Lee Huntington         : MR-EOM, pCC
   Robert Izsak           : Overlap fitted RIJCOSX, COSX-SCS-MP3, EOM
   Marcus Kettner         : VPT2
   Christian Kollmar      : KDIIS, OOCD, Brueckner-CCSD(T), CCSD density, CASPT2, CASPT2-K, improved NEVPT2
   Simone Kossmann        : Meta GGA functionals, TD-DFT gradient, OOMP2, MP2 Hessian
   Martin Krupicka        : Initial AUTO-CI
   Lucas Lang             : DCDCAS
   Marvin Lechner         : AUTO-CI (C++ implementation), FIC-MRCC
   Dagmar Lenk            : GEPOL surface, SMD
   Dimitrios Liakos       : Extrapolation schemes; Compound Job, initial MDCI parallelization
   Dimitrios Manganas     : Further ROCIS development; embedding schemes
   Dimitrios Pantazis     : SARC Basis sets
   Anastasios Papadopoulos: AUTO-CI, single reference methods and gradients
   Taras Petrenko         : DFT Hessian,TD-DFT gradient, ASA, ECA, R-Raman, ABS, FL, XAS/XES, NRVS
   Peter Pinski           : DLPNO-MP2, DLPNO-MP2 Gradient
   Christoph Reimann      : Effective Core Potentials
   Marius Retegan         : Local ZFS, SOC
   Christoph Riplinger    : Optimizer, TS searches, QM/MM, DLPNO-CCSD(T), (RO)-DLPNO pert. Triples
   Tobias Risthaus        : Range-separated hybrids, TD-DFT gradient, RPA, STAB
   Michael Roemelt        : Original ROCIS implementation
   Masaaki Saitow         : Open-shell DLPNO-CCSD energy and density
   Barbara Sandhoefer     : DKH picture change effects
   Avijit Sen             : IP-ROCIS
   Kantharuban Sivalingam : CASSCF convergence, NEVPT2, FIC-MRCI
   Bernardo de Souza      : ESD, SOC TD-DFT
   Georgi Stoychev        : AutoAux, RI-MP2 NMR, DLPNO-MP2 response
   Willem Van den Heuvel  : Paramagnetic NMR
   Boris Wezisla          : Elementary symmetry handling
   Frank Wennmohs         : Technical directorship


 We gratefully acknowledge several colleagues who have allowed us to
 interface, adapt or use parts of their codes:
   Stefan Grimme, W. Hujo, H. Kruse, P. Pracht,  : VdW corrections, initial TS optimization,
                  C. Bannwarth, S. Ehlert          DFT functionals, gCP, sTDA/sTD-DF
   Ed Valeev, F. Pavosevic, A. Kumar             : LibInt (2-el integral package), F12 methods
   Garnet Chan, S. Sharma, J. Yang, R. Olivares  : DMRG
   Ulf Ekstrom                                   : XCFun DFT Library
   Mihaly Kallay                                 : mrcc  (arbitrary order and MRCC methods)
   Jiri Pittner, Ondrej Demel                    : Mk-CCSD
   Frank Weinhold                                : gennbo (NPA and NBO analysis)
   Christopher J. Cramer and Donald G. Truhlar   : smd solvation model
   Lars Goerigk                                  : TD-DFT with DH, B97 family of functionals
   V. Asgeirsson, H. Jonsson                     : NEB implementation
   FAccTs GmbH                                   : IRC, NEB, NEB-TS, DLPNO-Multilevel, CI-OPT
                                                   MM, QMMM, 2- and 3-layer-ONIOM, Crystal-QMMM,
                                                   LR-CPCM, SF, NACMEs, symmetry and pop. for TD-DFT,
                                                   nearIR, NL-DFT gradient (VV10), updates on ESD,
                                                   ML-optimized integration grids
   S Lehtola, MJT Oliveira, MAL Marques          : LibXC Library
   Liviu Ungur et al                             : ANISO software


 Your calculation uses the libint2 library for the computation of 2-el integrals
 For citations please refer to: http://libint.valeyev.net

 Your ORCA version has been built with support for libXC version: 5.2.2
 For citations please refer to: https://tddft.org/programs/libxc/

 This ORCA versions uses:
   CBLAS   interface :  Fast vector & matrix operations
   LAPACKE interface :  Fast linear algebra routines
   SCALAPACK package :  Parallel linear algebra routines
   Shared memory     :  Shared parallel matrices


================================================================================

----- Orbital basis set information -----
Your calculation utilizes the basis: def2-TZVP(-f)
   F. Weigend and R. Ahlrichs, Phys. Chem. Chem. Phys. 7, 3297 (2005).

----- AuxJ basis set information -----
Your calculation utilizes the auxiliary basis: def2/J
   F. Weigend, Phys. Chem. Chem. Phys. 8, 1057 (2006).

----- AuxC basis set information -----
Your calculation utilizes the auxiliary basis: def2-TZVP/C
  H-La, Hf-Rn : A. Hellweg, C. Hattig, S. Hofener and W. Klopper, Theor. Chem. Acc. 117, 587 (2007).
        Ce-Lu : J. Chmela and M. E. Harding, Mol. Phys. (2018).

================================================================================
                                        WARNINGS
                       Please study these warnings very carefully!
================================================================================


WARNING: Post HF methods need fully converged wavefunctions
  ===> : Setting SCFConvForced true
         You can overwrite this default with %scf ConvForced false 

================================================================================
                                       INPUT FILE
================================================================================
NAME = m2.inp
|  1> ! DLPNO-CCSD RIJCOSX def2-TZVP(-f) def2/J def2-tzvp/C verytightscf LED LoosePNO
|  2> 
|  3> #As correlation part is not needed, loose settings were used to cut computational cost
|  4> 
|  5> %pal nprocs 2 end
|  6> %maxcore 132000
|  7> %scf maxiter 999 end
|  8> %mdci printlevel 3 
|  9>       LocMet FB LocTol 1.0e-6 LocRandom 1
| 10>       HFFragInter {1 1} {2 2} {3 3} {4 4} {5 5} {6 6} {7 7} {8 8} {9 9} {10 10} {11 11}
| 11>                   {2 3} {2 4} {2 5} {2 6} {2 7} {2 8} {2 9} {2 10} {2 11}
| 12>                   {3 4} {3 5} {3 6} {3 6} {3 8} {3 9} {3 10} {3 11}
| 13>                   {4 5} {4 6} {4 7} {4 8} {4 9} {4 10} {4 11}
| 14>                   {5 6} {5 7} {5 8} {5 9} {5 10} {5 11}
| 15>                   {6 7} {6 8} {6 9} {6 10} {6 11}
| 16>                   {7 8} {7 9} {7 10} {7 11}
| 17>                   {8 9} {8 10} {8 11}
| 18>                   {9 10} {9 11}
| 19>                   {10 11}
| 20>       end
| 21> 
| 22> *xyz 0 1
| 23> C(2)       9.674114   -0.664154    5.671998
| 24> C(2)      10.838988   -0.514043    6.307297
| 25> H(2)      11.625280   -0.601055    5.781307
| 26> C(2)      11.033050   -0.224137    7.756160
| 27> H(2)      11.479258   -0.887510    8.269299
| 28> C(2)      10.636408    0.891078    8.413564
| 29> C(2)       9.901915    1.992338    7.728235
| 30> H(2)      10.307283    2.851218    7.705738
| 31> C(2)       8.710800    1.847627    7.144286
| 32> H(2)       8.312540    2.628526    6.778112
| 33> C(2)       7.954860    0.586644    7.014673
| 34> H(2)       7.088930    0.558027    7.404357
| 35> C(2)       8.381665   -0.515662    6.398299
| 36> H(2)       7.810630   -1.274434    6.424481
| 37> C(2)       9.569828   -1.036040    4.180727
| 38> C(2)       8.921158    0.140060    3.443570
| 39> H(2)       8.026663    0.316788    3.829289
| 40> H(2)       9.474162    0.951660    3.568431
| 41> C(2)       8.780993   -0.153897    1.950331
| 42> H(2)       8.355963    0.628421    1.494983
| 43> C(2)      10.132685   -0.423560    1.331483
| 44> H(2)      10.706610    0.377886    1.423104
| 45> H(2)      10.024448   -0.616835    0.366596
| 46> C(2)      10.797041   -1.612401    2.021845
| 47> H(2)      11.698331   -1.775259    1.620378
| 48> C(2)      10.946354   -1.296284    3.531282
| 49> H(2)      11.386255   -2.058043    3.985505
| 50> H(2)      11.520769   -0.498096    3.645513
| 51> C(2)       8.698790   -2.309016    3.972879
| 52> H(2)       9.128405   -3.081465    4.418806
| 53> H(2)       7.808416   -2.172518    4.383598
| 54> C(2)       8.534346   -2.605941    2.471962
| 55> H(2)       7.958545   -3.414658    2.351826
| 56> C(2)       7.887058   -1.405340    1.768524
| 57> H(2)       6.990908   -1.235237    2.153342
| 58> H(2)       7.777803   -1.601376    0.804312
| 59> C(2)       9.919573   -2.862734    1.851089
| 60> H(2)      10.348131   -3.636169    2.296313
| 61> H(2)       9.821482   -3.074368    0.888958
| 62> C(2)      10.968759    1.126104    9.886415
| 63> C(2)       9.657143    1.404308   10.626355
| 64> H(2)       9.051450    0.627969   10.523739
| 65> H(2)       9.214231    2.192948   10.223876
| 66> C(2)       9.902783    1.665797   12.124403
| 67> H(2)       9.033313    1.849137   12.583126
| 68> C(2)      10.580438    0.441462   12.762937
| 69> H(2)      10.742016    0.611326   13.724759
| 70> H(2)       9.989391   -0.348688   12.682734
| 71> C(2)      11.912520    0.168038   12.052721
| 72> H(2)      12.345972   -0.636530   12.458659
| 73> C(2)      11.646126   -0.093734   10.562519
| 74> H(2)      11.061901   -0.887381   10.468170
| 75> H(2)      12.502460   -0.288480   10.105455
| 76> C(2)      11.906747    2.333853   10.079583
| 77> H(2)      11.500833    3.136622    9.666193
| 78> H(2)      12.769143    2.157983    9.626344
| 79> C(2)      12.157990    2.598400   11.579544
| 80> H(2)      12.755092    3.394537   11.677689
| 81> C(2)      10.838538    2.873281   12.281970
| 82> H(2)      10.413844    3.677772   11.891414
| 83> H(2)      11.001772    3.045777   13.243060
| 84> C(2)      12.835122    1.378497   12.215462
| 85> H(2)      13.703032    1.204175   11.772262
| 86> H(2)      13.004190    1.548083   13.176074
| 87> C(3)       3.959814    9.012496    5.671998
| 88> C(3)       5.124688    9.162607    6.307297
| 89> H(3)       5.910980    9.075595    5.781307
| 90> C(3)       5.318750    9.452513    7.756160
| 91> H(3)       5.764958    8.789140    8.269299
| 92> C(3)       4.922108   10.567728    8.413564
| 93> C(3)       4.187615   11.668988    7.728235
| 94> H(3)       4.592983   12.527868    7.705738
| 95> C(3)       2.996500   11.524277    7.144286
| 96> H(3)       2.598240   12.305176    6.778112
| 97> C(3)       2.240560   10.263294    7.014673
| 98> H(3)       1.374630   10.234677    7.404357
| 99> C(3)       2.667365    9.160988    6.398299
|100> H(3)       2.096330    8.402216    6.424481
|101> C(3)       3.855528    8.640610    4.180727
|102> C(3)       3.206858    9.816710    3.443570
|103> H(3)       2.312363    9.993438    3.829289
|104> H(3)       3.759862   10.628310    3.568431
|105> C(3)       3.066693    9.522753    1.950331
|106> H(3)       2.641663   10.305071    1.494983
|107> C(3)       4.418385    9.253090    1.331483
|108> H(3)       4.992310   10.054536    1.423104
|109> H(3)       4.310148    9.059815    0.366596
|110> C(3)       5.082741    8.064249    2.021845
|111> H(3)       5.984031    7.901391    1.620378
|112> C(3)       5.232054    8.380366    3.531282
|113> H(3)       5.671955    7.618607    3.985505
|114> H(3)       5.806469    9.178554    3.645513
|115> C(3)       2.984490    7.367634    3.972879
|116> H(3)       3.414105    6.595185    4.418806
|117> H(3)       2.094116    7.504132    4.383598
|118> C(3)       2.820046    7.070709    2.471962
|119> H(3)       2.244245    6.261992    2.351826
|120> C(3)       2.172758    8.271310    1.768524
|121> H(3)       1.276608    8.441413    2.153342
|122> H(3)       2.063503    8.075274    0.804312
|123> C(3)       4.205273    6.813916    1.851089
|124> H(3)       4.633831    6.040481    2.296313
|125> H(3)       4.107182    6.602282    0.888958
|126> C(3)       5.254459   10.802754    9.886415
|127> C(3)       3.942843   11.080958   10.626355
|128> H(3)       3.337150   10.304619   10.523739
|129> H(3)       3.499931   11.869598   10.223876
|130> C(3)       4.188483   11.342447   12.124403
|131> H(3)       3.319013   11.525787   12.583126
|132> C(3)       4.866138   10.118112   12.762937
|133> H(3)       5.027716   10.287976   13.724759
|134> H(3)       4.275091    9.327962   12.682734
|135> C(3)       6.198220    9.844688   12.052721
|136> H(3)       6.631672    9.040120   12.458659
|137> C(3)       5.931826    9.582916   10.562519
|138> H(3)       5.347601    8.789269   10.468170
|139> H(3)       6.788160    9.388170   10.105455
|140> C(3)       6.192447   12.010503   10.079583
|141> H(3)       5.786533   12.813272    9.666193
|142> H(3)       7.054843   11.834633    9.626344
|143> C(3)       6.443690   12.275050   11.579544
|144> H(3)       7.040792   13.071187   11.677689
|145> C(3)       5.124238   12.549931   12.281970
|146> H(3)       4.699544   13.354422   11.891414
|147> H(3)       5.287472   12.722427   13.243060
|148> C(3)       7.120822   11.055147   12.215462
|149> H(3)       7.988732   10.880825   11.772262
|150> H(3)       7.289890   11.224733   13.176074
|151> C(4)      -1.754486    5.786946    5.671998
|152> C(4)      -0.589612    5.937057    6.307297
|153> H(4)       0.196680    5.850045    5.781307
|154> C(4)      -0.395550    6.226963    7.756160
|155> H(4)       0.050658    5.563590    8.269299
|156> C(4)      -0.792192    7.342178    8.413564
|157> C(4)      -1.526685    8.443438    7.728235
|158> H(4)      -1.121317    9.302318    7.705738
|159> C(4)      -2.717800    8.298727    7.144286
|160> H(4)      -3.116060    9.079626    6.778112
|161> C(4)      -3.473740    7.037744    7.014673
|162> H(4)      -4.339670    7.009127    7.404357
|163> C(4)      -3.046935    5.935438    6.398299
|164> H(4)      -3.617970    5.176666    6.424481
|165> C(4)      -1.858772    5.415060    4.180727
|166> C(4)      -2.507442    6.591160    3.443570
|167> H(4)      -3.401937    6.767888    3.829289
|168> H(4)      -1.954438    7.402760    3.568431
|169> C(4)      -2.647607    6.297203    1.950331
|170> H(4)      -3.072637    7.079521    1.494983
|171> C(4)      -1.295915    6.027540    1.331483
|172> H(4)      -0.721990    6.828986    1.423104
|173> H(4)      -1.404152    5.834265    0.366596
|174> C(4)      -0.631559    4.838699    2.021845
|175> H(4)       0.269731    4.675841    1.620378
|176> C(4)      -0.482246    5.154816    3.531282
|177> H(4)      -0.042345    4.393057    3.985505
|178> H(4)       0.092169    5.953004    3.645513
|179> C(4)      -2.729810    4.142084    3.972879
|180> H(4)      -2.300195    3.369635    4.418806
|181> H(4)      -3.620184    4.278582    4.383598
|182> C(4)      -2.894254    3.845159    2.471962
|183> H(4)      -3.470055    3.036442    2.351826
|184> C(4)      -3.541542    5.045760    1.768524
|185> H(4)      -4.437692    5.215863    2.153342
|186> H(4)      -3.650797    4.849724    0.804312
|187> C(4)      -1.509027    3.588366    1.851089
|188> H(4)      -1.080469    2.814931    2.296313
|189> H(4)      -1.607118    3.376732    0.888958
|190> C(4)      -0.459841    7.577204    9.886415
|191> C(4)      -1.771457    7.855408   10.626355
|192> H(4)      -2.377150    7.079069   10.523739
|193> H(4)      -2.214369    8.644048   10.223876
|194> C(4)      -1.525817    8.116897   12.124403
|195> H(4)      -2.395287    8.300237   12.583126
|196> C(4)      -0.848162    6.892562   12.762937
|197> H(4)      -0.686584    7.062426   13.724759
|198> H(4)      -1.439209    6.102412   12.682734
|199> C(4)       0.483920    6.619138   12.052721
|200> H(4)       0.917372    5.814570   12.458659
|201> C(4)       0.217526    6.357366   10.562519
|202> H(4)      -0.366699    5.563719   10.468170
|203> H(4)       1.073860    6.162620   10.105455
|204> C(4)       0.478147    8.784953   10.079583
|205> H(4)       0.072233    9.587722    9.666193
|206> H(4)       1.340543    8.609083    9.626344
|207> C(4)       0.729390    9.049500   11.579544
|208> H(4)       1.326492    9.845637   11.677689
|209> C(4)      -0.590062    9.324381   12.281970
|210> H(4)      -1.014756   10.128872   11.891414
|211> H(4)      -0.426828    9.496877   13.243060
|212> C(4)       1.406522    7.829597   12.215462
|213> H(4)       2.274432    7.655275   11.772262
|214> H(4)       1.575590    7.999183   13.176074
|215> C(5)      -1.754486   -0.664154    5.671998
|216> C(5)      -0.589612   -0.514043    6.307297
|217> H(5)       0.196680   -0.601055    5.781307
|218> C(5)      -0.395550   -0.224137    7.756160
|219> H(5)       0.050658   -0.887510    8.269299
|220> C(5)      -0.792192    0.891078    8.413564
|221> C(5)      -1.526685    1.992338    7.728235
|222> H(5)      -1.121317    2.851218    7.705738
|223> C(5)      -2.717800    1.847627    7.144286
|224> H(5)      -3.116060    2.628526    6.778112
|225> C(5)      -3.473740    0.586644    7.014673
|226> H(5)      -4.339670    0.558027    7.404357
|227> C(5)      -3.046935   -0.515662    6.398299
|228> H(5)      -3.617970   -1.274434    6.424481
|229> C(5)      -1.858772   -1.036040    4.180727
|230> C(5)      -2.507442    0.140060    3.443570
|231> H(5)      -3.401937    0.316788    3.829289
|232> H(5)      -1.954438    0.951660    3.568431
|233> C(5)      -2.647607   -0.153897    1.950331
|234> H(5)      -3.072637    0.628421    1.494983
|235> C(5)      -1.295915   -0.423560    1.331483
|236> H(5)      -0.721990    0.377886    1.423104
|237> H(5)      -1.404152   -0.616835    0.366596
|238> C(5)      -0.631559   -1.612401    2.021845
|239> H(5)       0.269731   -1.775259    1.620378
|240> C(5)      -0.482246   -1.296284    3.531282
|241> H(5)      -0.042345   -2.058043    3.985505
|242> H(5)       0.092169   -0.498096    3.645513
|243> C(5)      -2.729810   -2.309016    3.972879
|244> H(5)      -2.300195   -3.081465    4.418806
|245> H(5)      -3.620184   -2.172518    4.383598
|246> C(5)      -2.894254   -2.605941    2.471962
|247> H(5)      -3.470055   -3.414658    2.351826
|248> C(5)      -3.541542   -1.405340    1.768524
|249> H(5)      -4.437692   -1.235237    2.153342
|250> H(5)      -3.650797   -1.601376    0.804312
|251> C(5)      -1.509027   -2.862734    1.851089
|252> H(5)      -1.080469   -3.636169    2.296313
|253> H(5)      -1.607118   -3.074368    0.888958
|254> C(5)      -0.459841    1.126104    9.886415
|255> C(5)      -1.771457    1.404308   10.626355
|256> H(5)      -2.377150    0.627969   10.523739
|257> H(5)      -2.214369    2.192948   10.223876
|258> C(5)      -1.525817    1.665797   12.124403
|259> H(5)      -2.395287    1.849137   12.583126
|260> C(5)      -0.848162    0.441462   12.762937
|261> H(5)      -0.686584    0.611326   13.724759
|262> H(5)      -1.439209   -0.348688   12.682734
|263> C(5)       0.483920    0.168038   12.052721
|264> H(5)       0.917372   -0.636530   12.458659
|265> C(5)       0.217526   -0.093734   10.562519
|266> H(5)      -0.366699   -0.887381   10.468170
|267> H(5)       1.073860   -0.288480   10.105455
|268> C(5)       0.478147    2.333853   10.079583
|269> H(5)       0.072233    3.136622    9.666193
|270> H(5)       1.340543    2.157983    9.626344
|271> C(5)       0.729390    2.598400   11.579544
|272> H(5)       1.326492    3.394537   11.677689
|273> C(5)      -0.590062    2.873281   12.281970
|274> H(5)      -1.014756    3.677772   11.891414
|275> H(5)      -0.426828    3.045777   13.243060
|276> C(5)       1.406522    1.378497   12.215462
|277> H(5)       2.274432    1.204175   11.772262
|278> H(5)       1.575590    1.548083   13.176074
|279> C(6)       9.674114    5.786946    5.671998
|280> C(6)      10.838988    5.937057    6.307297
|281> H(6)      11.625280    5.850045    5.781307
|282> C(6)      11.033050    6.226963    7.756160
|283> H(6)      11.479258    5.563590    8.269299
|284> C(6)      10.636408    7.342178    8.413564
|285> C(6)       9.901915    8.443438    7.728235
|286> H(6)      10.307283    9.302318    7.705738
|287> C(6)       8.710800    8.298727    7.144286
|288> H(6)       8.312540    9.079626    6.778112
|289> C(6)       7.954860    7.037744    7.014673
|290> H(6)       7.088930    7.009127    7.404357
|291> C(6)       8.381665    5.935438    6.398299
|292> H(6)       7.810630    5.176666    6.424481
|293> C(6)       9.569828    5.415060    4.180727
|294> C(6)       8.921158    6.591160    3.443570
|295> H(6)       8.026663    6.767888    3.829289
|296> H(6)       9.474162    7.402760    3.568431
|297> C(6)       8.780993    6.297203    1.950331
|298> H(6)       8.355963    7.079521    1.494983
|299> C(6)      10.132685    6.027540    1.331483
|300> H(6)      10.706610    6.828986    1.423104
|301> H(6)      10.024448    5.834265    0.366596
|302> C(6)      10.797041    4.838699    2.021845
|303> H(6)      11.698331    4.675841    1.620378
|304> C(6)      10.946354    5.154816    3.531282
|305> H(6)      11.386255    4.393057    3.985505
|306> H(6)      11.520769    5.953004    3.645513
|307> C(6)       8.698790    4.142084    3.972879
|308> H(6)       9.128405    3.369635    4.418806
|309> H(6)       7.808416    4.278582    4.383598
|310> C(6)       8.534346    3.845159    2.471962
|311> H(6)       7.958545    3.036442    2.351826
|312> C(6)       7.887058    5.045760    1.768524
|313> H(6)       6.990908    5.215863    2.153342
|314> H(6)       7.777803    4.849724    0.804312
|315> C(6)       9.919573    3.588366    1.851089
|316> H(6)      10.348131    2.814931    2.296313
|317> H(6)       9.821482    3.376732    0.888958
|318> C(6)      10.968759    7.577204    9.886415
|319> C(6)       9.657143    7.855408   10.626355
|320> H(6)       9.051450    7.079069   10.523739
|321> H(6)       9.214231    8.644048   10.223876
|322> C(6)       9.902783    8.116897   12.124403
|323> H(6)       9.033313    8.300237   12.583126
|324> C(6)      10.580438    6.892562   12.762937
|325> H(6)      10.742016    7.062426   13.724759
|326> H(6)       9.989391    6.102412   12.682734
|327> C(6)      11.912520    6.619138   12.052721
|328> H(6)      12.345972    5.814570   12.458659
|329> C(6)      11.646126    6.357366   10.562519
|330> H(6)      11.061901    5.563719   10.468170
|331> H(6)      12.502460    6.162620   10.105455
|332> C(6)      11.906747    8.784953   10.079583
|333> H(6)      11.500833    9.587722    9.666193
|334> H(6)      12.769143    8.609083    9.626344
|335> C(6)      12.157990    9.049500   11.579544
|336> H(6)      12.755092    9.845637   11.677689
|337> C(6)      10.838538    9.324381   12.281970
|338> H(6)      10.413844   10.128872   11.891414
|339> H(6)      11.001772    9.496877   13.243060
|340> C(6)      12.835122    7.829597   12.215462
|341> H(6)      13.703032    7.655275   11.772262
|342> H(6)      13.004190    7.999183   13.176074
|343> C(7)       3.959814   -3.889704    5.671998
|344> C(7)       5.124688   -3.739593    6.307297
|345> H(7)       5.910980   -3.826605    5.781307
|346> C(7)       5.318750   -3.449687    7.756160
|347> H(7)       5.764958   -4.113060    8.269299
|348> C(7)       4.922108   -2.334472    8.413564
|349> C(7)       4.187615   -1.233212    7.728235
|350> H(7)       4.592983   -0.374332    7.705738
|351> C(7)       2.996500   -1.377923    7.144286
|352> H(7)       2.598240   -0.597024    6.778112
|353> C(7)       2.240560   -2.638906    7.014673
|354> H(7)       1.374630   -2.667523    7.404357
|355> C(7)       2.667365   -3.741212    6.398299
|356> H(7)       2.096330   -4.499984    6.424481
|357> C(7)       3.855528   -4.261590    4.180727
|358> C(7)       3.206858   -3.085490    3.443570
|359> H(7)       2.312363   -2.908762    3.829289
|360> H(7)       3.759862   -2.273890    3.568431
|361> C(7)       3.066693   -3.379447    1.950331
|362> H(7)       2.641663   -2.597129    1.494983
|363> C(7)       4.418385   -3.649110    1.331483
|364> H(7)       4.992310   -2.847664    1.423104
|365> H(7)       4.310148   -3.842385    0.366596
|366> C(7)       5.082741   -4.837951    2.021845
|367> H(7)       5.984031   -5.000809    1.620378
|368> C(7)       5.232054   -4.521834    3.531282
|369> H(7)       5.671955   -5.283593    3.985505
|370> H(7)       5.806469   -3.723646    3.645513
|371> C(7)       2.984490   -5.534566    3.972879
|372> H(7)       3.414105   -6.307015    4.418806
|373> H(7)       2.094116   -5.398068    4.383598
|374> C(7)       2.820046   -5.831491    2.471962
|375> H(7)       2.244245   -6.640208    2.351826
|376> C(7)       2.172758   -4.630890    1.768524
|377> H(7)       1.276608   -4.460787    2.153342
|378> H(7)       2.063503   -4.826926    0.804312
|379> C(7)       4.205273   -6.088284    1.851089
|380> H(7)       4.633831   -6.861719    2.296313
|381> H(7)       4.107182   -6.299918    0.888958
|382> C(7)       5.254459   -2.099446    9.886415
|383> C(7)       3.942843   -1.821242   10.626355
|384> H(7)       3.337150   -2.597581   10.523739
|385> H(7)       3.499931   -1.032602   10.223876
|386> C(7)       4.188483   -1.559753   12.124403
|387> H(7)       3.319013   -1.376413   12.583126
|388> C(7)       4.866138   -2.784088   12.762937
|389> H(7)       5.027716   -2.614224   13.724759
|390> H(7)       4.275091   -3.574238   12.682734
|391> C(7)       6.198220   -3.057512   12.052721
|392> H(7)       6.631672   -3.862080   12.458659
|393> C(7)       5.931826   -3.319284   10.562519
|394> H(7)       5.347601   -4.112931   10.468170
|395> H(7)       6.788160   -3.514030   10.105455
|396> C(7)       6.192447   -0.891697   10.079583
|397> H(7)       5.786533   -0.088928    9.666193
|398> H(7)       7.054843   -1.067567    9.626344
|399> C(7)       6.443690   -0.627150   11.579544
|400> H(7)       7.040792    0.168987   11.677689
|401> C(7)       5.124238   -0.352269   12.281970
|402> H(7)       4.699544    0.452222   11.891414
|403> H(7)       5.287472   -0.179773   13.243060
|404> C(7)       7.120822   -1.847053   12.215462
|405> H(7)       7.988732   -2.021375   11.772262
|406> H(7)       7.289890   -1.677467   13.176074
|407> C(8)       1.754486    5.786946   -5.671998
|408> C(8)       0.589612    5.937057   -6.307297
|409> H(8)      -0.196680    5.850045   -5.781307
|410> C(8)       0.395550    6.226963   -7.756160
|411> H(8)      -0.050658    5.563590   -8.269299
|412> C(8)       0.792192    7.342178   -8.413564
|413> C(8)       1.526685    8.443438   -7.728235
|414> H(8)       1.121317    9.302318   -7.705738
|415> C(8)       2.717800    8.298727   -7.144286
|416> H(8)       3.116060    9.079626   -6.778112
|417> C(8)       3.473740    7.037744   -7.014673
|418> H(8)       4.339670    7.009127   -7.404357
|419> C(8)       3.046935    5.935438   -6.398299
|420> H(8)       3.617970    5.176666   -6.424481
|421> C(8)       1.858772    5.415060   -4.180727
|422> C(8)       2.507442    6.591160   -3.443570
|423> H(8)       3.401937    6.767888   -3.829289
|424> H(8)       1.954438    7.402760   -3.568431
|425> C(8)       2.647607    6.297203   -1.950331
|426> H(8)       3.072637    7.079521   -1.494983
|427> C(8)       1.295915    6.027540   -1.331483
|428> H(8)       0.721990    6.828986   -1.423104
|429> H(8)       1.404152    5.834265   -0.366596
|430> C(8)       0.631559    4.838699   -2.021845
|431> H(8)      -0.269731    4.675841   -1.620378
|432> C(8)       0.482246    5.154816   -3.531282
|433> H(8)       0.042345    4.393057   -3.985505
|434> H(8)      -0.092169    5.953004   -3.645513
|435> C(8)       2.729810    4.142084   -3.972879
|436> H(8)       2.300195    3.369635   -4.418806
|437> H(8)       3.620184    4.278582   -4.383598
|438> C(8)       2.894254    3.845159   -2.471962
|439> H(8)       3.470055    3.036442   -2.351826
|440> C(8)       3.541542    5.045760   -1.768524
|441> H(8)       4.437692    5.215863   -2.153342
|442> H(8)       3.650797    4.849724   -0.804312
|443> C(8)       1.509027    3.588366   -1.851089
|444> H(8)       1.080469    2.814931   -2.296313
|445> H(8)       1.607118    3.376732   -0.888958
|446> C(8)       0.459841    7.577204   -9.886415
|447> C(8)       1.771457    7.855408  -10.626355
|448> H(8)       2.377150    7.079069  -10.523739
|449> H(8)       2.214369    8.644048  -10.223876
|450> C(8)       1.525817    8.116897  -12.124403
|451> H(8)       2.395287    8.300237  -12.583126
|452> C(8)       0.848162    6.892562  -12.762937
|453> H(8)       0.686584    7.062426  -13.724759
|454> H(8)       1.439209    6.102412  -12.682734
|455> C(8)      -0.483920    6.619138  -12.052721
|456> H(8)      -0.917372    5.814570  -12.458659
|457> C(8)      -0.217526    6.357366  -10.562519
|458> H(8)       0.366699    5.563719  -10.468170
|459> H(8)      -1.073860    6.162620  -10.105455
|460> C(8)      -0.478147    8.784953  -10.079583
|461> H(8)      -0.072233    9.587722   -9.666193
|462> H(8)      -1.340543    8.609083   -9.626344
|463> C(8)      -0.729390    9.049500  -11.579544
|464> H(8)      -1.326492    9.845637  -11.677689
|465> C(8)       0.590062    9.324381  -12.281970
|466> H(8)       1.014756   10.128872  -11.891414
|467> H(8)       0.426828    9.496877  -13.243060
|468> C(8)      -1.406522    7.829597  -12.215462
|469> H(8)      -2.274432    7.655275  -11.772262
|470> H(8)      -1.575590    7.999183  -13.176074
|471> C(9)       1.754486   -0.664154   -5.671998
|472> C(9)       0.589612   -0.514043   -6.307297
|473> H(9)      -0.196680   -0.601055   -5.781307
|474> C(9)       0.395550   -0.224137   -7.756160
|475> H(9)      -0.050658   -0.887510   -8.269299
|476> C(9)       0.792192    0.891078   -8.413564
|477> C(9)       1.526685    1.992338   -7.728235
|478> H(9)       1.121317    2.851218   -7.705738
|479> C(9)       2.717800    1.847627   -7.144286
|480> H(9)       3.116060    2.628526   -6.778112
|481> C(9)       3.473740    0.586644   -7.014673
|482> H(9)       4.339670    0.558027   -7.404357
|483> C(9)       3.046935   -0.515662   -6.398299
|484> H(9)       3.617970   -1.274434   -6.424481
|485> C(9)       1.858772   -1.036040   -4.180727
|486> C(9)       2.507442    0.140060   -3.443570
|487> H(9)       3.401937    0.316788   -3.829289
|488> H(9)       1.954438    0.951660   -3.568431
|489> C(9)       2.647607   -0.153897   -1.950331
|490> H(9)       3.072637    0.628421   -1.494983
|491> C(9)       1.295915   -0.423560   -1.331483
|492> H(9)       0.721990    0.377886   -1.423104
|493> H(9)       1.404152   -0.616835   -0.366596
|494> C(9)       0.631559   -1.612401   -2.021845
|495> H(9)      -0.269731   -1.775259   -1.620378
|496> C(9)       0.482246   -1.296284   -3.531282
|497> H(9)       0.042345   -2.058043   -3.985505
|498> H(9)      -0.092169   -0.498096   -3.645513
|499> C(9)       2.729810   -2.309016   -3.972879
|500> H(9)       2.300195   -3.081465   -4.418806
|501> H(9)       3.620184   -2.172518   -4.383598
|502> C(9)       2.894254   -2.605941   -2.471962
|503> H(9)       3.470055   -3.414658   -2.351826
|504> C(9)       3.541542   -1.405340   -1.768524
|505> H(9)       4.437692   -1.235237   -2.153342
|506> H(9)       3.650797   -1.601376   -0.804312
|507> C(9)       1.509027   -2.862734   -1.851089
|508> H(9)       1.080469   -3.636169   -2.296313
|509> H(9)       1.607118   -3.074368   -0.888958
|510> C(9)       0.459841    1.126104   -9.886415
|511> C(9)       1.771457    1.404308  -10.626355
|512> H(9)       2.377150    0.627969  -10.523739
|513> H(9)       2.214369    2.192948  -10.223876
|514> C(9)       1.525817    1.665797  -12.124403
|515> H(9)       2.395287    1.849137  -12.583126
|516> C(9)       0.848162    0.441462  -12.762937
|517> H(9)       0.686584    0.611326  -13.724759
|518> H(9)       1.439209   -0.348688  -12.682734
|519> C(9)      -0.483920    0.168038  -12.052721
|520> H(9)      -0.917372   -0.636530  -12.458659
|521> C(9)      -0.217526   -0.093734  -10.562519
|522> H(9)       0.366699   -0.887381  -10.468170
|523> H(9)      -1.073860   -0.288480  -10.105455
|524> C(9)      -0.478147    2.333853  -10.079583
|525> H(9)      -0.072233    3.136622   -9.666193
|526> H(9)      -1.340543    2.157983   -9.626344
|527> C(9)      -0.729390    2.598400  -11.579544
|528> H(9)      -1.326492    3.394537  -11.677689
|529> C(9)       0.590062    2.873281  -12.281970
|530> H(9)       1.014756    3.677772  -11.891414
|531> H(9)       0.426828    3.045777  -13.243060
|532> C(9)      -1.406522    1.378497  -12.215462
|533> H(9)      -2.274432    1.204175  -11.772262
|534> H(9)      -1.575590    1.548083  -13.176074
|535> C(10)       8.845181    5.786946   22.449799
|536> C(10)       7.680306    5.937057   21.814500
|537> H(10)       6.894014    5.850045   22.340490
|538> C(10)       7.486244    6.226963   20.365637
|539> H(10)       7.040037    5.563590   19.852498
|540> C(10)       7.882887    7.342178   19.708233
|541> C(10)       8.617380    8.443438   20.393561
|542> H(10)       8.212011    9.302318   20.416059
|543> C(10)       9.808495    8.298727   20.977511
|544> H(10)      10.206755    9.079626   21.343684
|545> C(10)      10.564435    7.037744   21.107124
|546> H(10)      11.430364    7.009127   20.717440
|547> C(10)      10.137630    5.935438   21.723497
|548> H(10)      10.708664    5.176666   21.697316
|549> C(10)       8.949467    5.415060   23.941070
|550> C(10)       9.598136    6.591160   24.678227
|551> H(10)      10.492631    6.767888   24.292508
|552> H(10)       9.045132    7.402760   24.553366
|553> C(10)       9.738301    6.297203   26.171466
|554> H(10)      10.163332    7.079521   26.626814
|555> C(10)       8.386610    6.027540   26.790314
|556> H(10)       7.812684    6.828986   26.698693
|557> H(10)       8.494847    5.834265   27.755201
|558> C(10)       7.722253    4.838699   26.099952
|559> H(10)       6.820963    4.675841   26.501419
|560> C(10)       7.572941    5.154816   24.590515
|561> H(10)       7.133040    4.393057   24.136291
|562> H(10)       6.998526    5.953004   24.476284
|563> C(10)       9.820505    4.142084   24.148918
|564> H(10)       9.390889    3.369635   23.702991
|565> H(10)      10.710879    4.278582   23.738199
|566> C(10)       9.984949    3.845159   25.649835
|567> H(10)      10.560750    3.036442   25.769971
|568> C(10)      10.632236    5.045760   26.353273
|569> H(10)      11.528387    5.215863   25.968455
|570> H(10)      10.741492    4.849724   27.317485
|571> C(10)       8.599722    3.588366   26.270708
|572> H(10)       8.171164    2.814931   25.825483
|573> H(10)       8.697812    3.376732   27.232839
|574> C(10)       7.550536    7.577204   18.235382
|575> C(10)       8.862152    7.855408   17.495442
|576> H(10)       9.467845    7.079069   17.598058
|577> H(10)       9.305063    8.644048   17.897921
|578> C(10)       8.616511    8.116897   15.997393
|579> H(10)       9.485982    8.300237   15.538671
|580> C(10)       7.938857    6.892562   15.358860
|581> H(10)       7.777278    7.062426   14.397038
|582> H(10)       8.529904    6.102412   15.439063
|583> C(10)       6.606774    6.619138   16.069076
|584> H(10)       6.173322    5.814570   15.663138
|585> C(10)       6.873169    6.357366   17.559278
|586> H(10)       7.457394    5.563719   17.653627
|587> H(10)       6.016834    6.162620   18.016342
|588> C(10)       6.612548    8.784953   18.042214
|589> H(10)       7.018462    9.587722   18.455604
|590> H(10)       5.750152    8.609083   18.495453
|591> C(10)       6.361304    9.049500   16.542253
|592> H(10)       5.764202    9.845637   16.444108
|593> C(10)       7.680757    9.324381   15.839827
|594> H(10)       8.105450   10.128872   16.230383
|595> H(10)       7.517523    9.496877   14.878736
|596> C(10)       5.684173    7.829597   15.906335
|597> H(10)       4.816262    7.655275   16.349535
|598> H(10)       5.515105    7.999183   14.945723
|599> C(11)       8.845181   -0.664154   22.449799
|600> C(11)       7.680306   -0.514043   21.814500
|601> H(11)       6.894014   -0.601055   22.340490
|602> C(11)       7.486244   -0.224137   20.365637
|603> H(11)       7.040037   -0.887510   19.852498
|604> C(11)       7.882887    0.891078   19.708233
|605> C(11)       8.617380    1.992338   20.393561
|606> H(11)       8.212011    2.851218   20.416059
|607> C(11)       9.808495    1.847627   20.977511
|608> H(11)      10.206755    2.628526   21.343684
|609> C(11)      10.564435    0.586644   21.107124
|610> H(11)      11.430364    0.558027   20.717440
|611> C(11)      10.137630   -0.515662   21.723497
|612> H(11)      10.708664   -1.274434   21.697316
|613> C(11)       8.949467   -1.036040   23.941070
|614> C(11)       9.598136    0.140060   24.678227
|615> H(11)      10.492631    0.316788   24.292508
|616> H(11)       9.045132    0.951660   24.553366
|617> C(11)       9.738301   -0.153897   26.171466
|618> H(11)      10.163332    0.628421   26.626814
|619> C(11)       8.386610   -0.423560   26.790314
|620> H(11)       7.812684    0.377886   26.698693
|621> H(11)       8.494847   -0.616835   27.755201
|622> C(11)       7.722253   -1.612401   26.099952
|623> H(11)       6.820963   -1.775259   26.501419
|624> C(11)       7.572941   -1.296284   24.590515
|625> H(11)       7.133040   -2.058043   24.136291
|626> H(11)       6.998526   -0.498096   24.476284
|627> C(11)       9.820505   -2.309016   24.148918
|628> H(11)       9.390889   -3.081465   23.702991
|629> H(11)      10.710879   -2.172518   23.738199
|630> C(11)       9.984949   -2.605941   25.649835
|631> H(11)      10.560750   -3.414658   25.769971
|632> C(11)      10.632236   -1.405340   26.353273
|633> H(11)      11.528387   -1.235237   25.968455
|634> H(11)      10.741492   -1.601376   27.317485
|635> C(11)       8.599722   -2.862734   26.270708
|636> H(11)       8.171164   -3.636169   25.825483
|637> H(11)       8.697812   -3.074368   27.232839
|638> C(11)       7.550536    1.126104   18.235382
|639> C(11)       8.862152    1.404308   17.495442
|640> H(11)       9.467845    0.627969   17.598058
|641> H(11)       9.305063    2.192948   17.897921
|642> C(11)       8.616511    1.665797   15.997393
|643> H(11)       9.485982    1.849137   15.538671
|644> C(11)       7.938857    0.441462   15.358860
|645> H(11)       7.777278    0.611326   14.397038
|646> H(11)       8.529904   -0.348688   15.439063
|647> C(11)       6.606774    0.168038   16.069076
|648> H(11)       6.173322   -0.636530   15.663138
|649> C(11)       6.873169   -0.093734   17.559278
|650> H(11)       7.457394   -0.887381   17.653627
|651> H(11)       6.016834   -0.288480   18.016342
|652> C(11)       6.612548    2.333853   18.042214
|653> H(11)       7.018462    3.136622   18.455604
|654> H(11)       5.750152    2.157983   18.495453
|655> C(11)       6.361304    2.598400   16.542253
|656> H(11)       5.764202    3.394537   16.444108
|657> C(11)       7.680757    2.873281   15.839827
|658> H(11)       8.105450    3.677772   16.230383
|659> H(11)       7.517523    3.045777   14.878736
|660> C(11)       5.684173    1.378497   15.906335
|661> H(11)       4.816262    1.204175   16.349535
|662> H(11)       5.515105    1.548083   14.945723
|663> *
|664> 
|665>                          ****END OF INPUT****
================================================================================

                       ****************************
                       * Single Point Calculation *
                       ****************************

---------------------------------
CARTESIAN COORDINATES (ANGSTROEM)
---------------------------------
  C      9.674114   -0.664154    5.671998
  C     10.838988   -0.514043    6.307297
  H     11.625280   -0.601055    5.781307
  C     11.033050   -0.224137    7.756160
  H     11.479258   -0.887510    8.269299
  C     10.636408    0.891078    8.413564
  C      9.901915    1.992338    7.728235
  H     10.307283    2.851218    7.705738
  C      8.710800    1.847627    7.144286
  H      8.312540    2.628526    6.778112
  C      7.954860    0.586644    7.014673
  H      7.088930    0.558027    7.404357
  C      8.381665   -0.515662    6.398299
  H      7.810630   -1.274434    6.424481
  C      9.569828   -1.036040    4.180727
  C      8.921158    0.140060    3.443570
  H      8.026663    0.316788    3.829289
  H      9.474162    0.951660    3.568431
  C      8.780993   -0.153897    1.950331
  H      8.355963    0.628421    1.494983
  C     10.132685   -0.423560    1.331483
  H     10.706610    0.377886    1.423104
  H     10.024448   -0.616835    0.366596
  C     10.797041   -1.612401    2.021845
  H     11.698331   -1.775259    1.620378
  C     10.946354   -1.296284    3.531282
  H     11.386255   -2.058043    3.985505
  H     11.520769   -0.498096    3.645513
  C      8.698790   -2.309016    3.972879
  H      9.128405   -3.081465    4.418806
  H      7.808416   -2.172518    4.383598
  C      8.534346   -2.605941    2.471962
  H      7.958545   -3.414658    2.351826
  C      7.887058   -1.405340    1.768524
  H      6.990908   -1.235237    2.153342
  H      7.777803   -1.601376    0.804312
  C      9.919573   -2.862734    1.851089
  H     10.348131   -3.636169    2.296313
  H      9.821482   -3.074368    0.888958
  C     10.968759    1.126104    9.886415
  C      9.657143    1.404308   10.626355
  H      9.051450    0.627969   10.523739
  H      9.214231    2.192948   10.223876
  C      9.902783    1.665797   12.124403
  H      9.033313    1.849137   12.583126
  C     10.580438    0.441462   12.762937
  H     10.742016    0.611326   13.724759
  H      9.989391   -0.348688   12.682734
  C     11.912520    0.168038   12.052721
  H     12.345972   -0.636530   12.458659
  C     11.646126   -0.093734   10.562519
  H     11.061901   -0.887381   10.468170
  H     12.502460   -0.288480   10.105455
  C     11.906747    2.333853   10.079583
  H     11.500833    3.136622    9.666193
  H     12.769143    2.157983    9.626344
  C     12.157990    2.598400   11.579544
  H     12.755092    3.394537   11.677689
  C     10.838538    2.873281   12.281970
  H     10.413844    3.677772   11.891414
  H     11.001772    3.045777   13.243060
  C     12.835122    1.378497   12.215462
  H     13.703032    1.204175   11.772262
  H     13.004190    1.548083   13.176074
  C      3.959814    9.012496    5.671998
  C      5.124688    9.162607    6.307297
  H      5.910980    9.075595    5.781307
  C      5.318750    9.452513    7.756160
  H      5.764958    8.789140    8.269299
  C      4.922108   10.567728    8.413564
  C      4.187615   11.668988    7.728235
  H      4.592983   12.527868    7.705738
  C      2.996500   11.524277    7.144286
  H      2.598240   12.305176    6.778112
  C      2.240560   10.263294    7.014673
  H      1.374630   10.234677    7.404357
  C      2.667365    9.160988    6.398299
  H      2.096330    8.402216    6.424481
  C      3.855528    8.640610    4.180727
  C      3.206858    9.816710    3.443570
  H      2.312363    9.993438    3.829289
  H      3.759862   10.628310    3.568431
  C      3.066693    9.522753    1.950331
  H      2.641663   10.305071    1.494983
  C      4.418385    9.253090    1.331483
  H      4.992310   10.054536    1.423104
  H      4.310148    9.059815    0.366596
  C      5.082741    8.064249    2.021845
  H      5.984031    7.901391    1.620378
  C      5.232054    8.380366    3.531282
  H      5.671955    7.618607    3.985505
  H      5.806469    9.178554    3.645513
  C      2.984490    7.367634    3.972879
  H      3.414105    6.595185    4.418806
  H      2.094116    7.504132    4.383598
  C      2.820046    7.070709    2.471962
  H      2.244245    6.261992    2.351826
  C      2.172758    8.271310    1.768524
  H      1.276608    8.441413    2.153342
  H      2.063503    8.075274    0.804312
  C      4.205273    6.813916    1.851089
  H      4.633831    6.040481    2.296313
  H      4.107182    6.602282    0.888958
  C      5.254459   10.802754    9.886415
  C      3.942843   11.080958   10.626355
  H      3.337150   10.304619   10.523739
  H      3.499931   11.869598   10.223876
  C      4.188483   11.342447   12.124403
  H      3.319013   11.525787   12.583126
  C      4.866138   10.118112   12.762937
  H      5.027716   10.287976   13.724759
  H      4.275091    9.327962   12.682734
  C      6.198220    9.844688   12.052721
  H      6.631672    9.040120   12.458659
  C      5.931826    9.582916   10.562519
  H      5.347601    8.789269   10.468170
  H      6.788160    9.388170   10.105455
  C      6.192447   12.010503   10.079583
  H      5.786533   12.813272    9.666193
  H      7.054843   11.834633    9.626344
  C      6.443690   12.275050   11.579544
  H      7.040792   13.071187   11.677689
  C      5.124238   12.549931   12.281970
  H      4.699544   13.354422   11.891414
  H      5.287472   12.722427   13.243060
  C      7.120822   11.055147   12.215462
  H      7.988732   10.880825   11.772262
  H      7.289890   11.224733   13.176074
  C     -1.754486    5.786946    5.671998
  C     -0.589612    5.937057    6.307297
  H      0.196680    5.850045    5.781307
  C     -0.395550    6.226963    7.756160
  H      0.050658    5.563590    8.269299
  C     -0.792192    7.342178    8.413564
  C     -1.526685    8.443438    7.728235
  H     -1.121317    9.302318    7.705738
  C     -2.717800    8.298727    7.144286
  H     -3.116060    9.079626    6.778112
  C     -3.473740    7.037744    7.014673
  H     -4.339670    7.009127    7.404357
  C     -3.046935    5.935438    6.398299
  H     -3.617970    5.176666    6.424481
  C     -1.858772    5.415060    4.180727
  C     -2.507442    6.591160    3.443570
  H     -3.401937    6.767888    3.829289
  H     -1.954438    7.402760    3.568431
  C     -2.647607    6.297203    1.950331
  H     -3.072637    7.079521    1.494983
  C     -1.295915    6.027540    1.331483
  H     -0.721990    6.828986    1.423104
  H     -1.404152    5.834265    0.366596
  C     -0.631559    4.838699    2.021845
  H      0.269731    4.675841    1.620378
  C     -0.482246    5.154816    3.531282
  H     -0.042345    4.393057    3.985505
  H      0.092169    5.953004    3.645513
  C     -2.729810    4.142084    3.972879
  H     -2.300195    3.369635    4.418806
  H     -3.620184    4.278582    4.383598
  C     -2.894254    3.845159    2.471962
  H     -3.470055    3.036442    2.351826
  C     -3.541542    5.045760    1.768524
  H     -4.437692    5.215863    2.153342
  H     -3.650797    4.849724    0.804312
  C     -1.509027    3.588366    1.851089
  H     -1.080469    2.814931    2.296313
  H     -1.607118    3.376732    0.888958
  C     -0.459841    7.577204    9.886415
  C     -1.771457    7.855408   10.626355
  H     -2.377150    7.079069   10.523739
  H     -2.214369    8.644048   10.223876
  C     -1.525817    8.116897   12.124403
  H     -2.395287    8.300237   12.583126
  C     -0.848162    6.892562   12.762937
  H     -0.686584    7.062426   13.724759
  H     -1.439209    6.102412   12.682734
  C      0.483920    6.619138   12.052721
  H      0.917372    5.814570   12.458659
  C      0.217526    6.357366   10.562519
  H     -0.366699    5.563719   10.468170
  H      1.073860    6.162620   10.105455
  C      0.478147    8.784953   10.079583
  H      0.072233    9.587722    9.666193
  H      1.340543    8.609083    9.626344
  C      0.729390    9.049500   11.579544
  H      1.326492    9.845637   11.677689
  C     -0.590062    9.324381   12.281970
  H     -1.014756   10.128872   11.891414
  H     -0.426828    9.496877   13.243060
  C      1.406522    7.829597   12.215462
  H      2.274432    7.655275   11.772262
  H      1.575590    7.999183   13.176074
  C     -1.754486   -0.664154    5.671998
  C     -0.589612   -0.514043    6.307297
  H      0.196680   -0.601055    5.781307
  C     -0.395550   -0.224137    7.756160
  H      0.050658   -0.887510    8.269299
  C     -0.792192    0.891078    8.413564
  C     -1.526685    1.992338    7.728235
  H     -1.121317    2.851218    7.705738
  C     -2.717800    1.847627    7.144286
  H     -3.116060    2.628526    6.778112
  C     -3.473740    0.586644    7.014673
  H     -4.339670    0.558027    7.404357
  C     -3.046935   -0.515662    6.398299
  H     -3.617970   -1.274434    6.424481
  C     -1.858772   -1.036040    4.180727
  C     -2.507442    0.140060    3.443570
  H     -3.401937    0.316788    3.829289
  H     -1.954438    0.951660    3.568431
  C     -2.647607   -0.153897    1.950331
  H     -3.072637    0.628421    1.494983
  C     -1.295915   -0.423560    1.331483
  H     -0.721990    0.377886    1.423104
  H     -1.404152   -0.616835    0.366596
  C     -0.631559   -1.612401    2.021845
  H      0.269731   -1.775259    1.620378
  C     -0.482246   -1.296284    3.531282
  H     -0.042345   -2.058043    3.985505
  H      0.092169   -0.498096    3.645513
  C     -2.729810   -2.309016    3.972879
  H     -2.300195   -3.081465    4.418806
  H     -3.620184   -2.172518    4.383598
  C     -2.894254   -2.605941    2.471962
  H     -3.470055   -3.414658    2.351826
  C     -3.541542   -1.405340    1.768524
  H     -4.437692   -1.235237    2.153342
  H     -3.650797   -1.601376    0.804312
  C     -1.509027   -2.862734    1.851089
  H     -1.080469   -3.636169    2.296313
  H     -1.607118   -3.074368    0.888958
  C     -0.459841    1.126104    9.886415
  C     -1.771457    1.404308   10.626355
  H     -2.377150    0.627969   10.523739
  H     -2.214369    2.192948   10.223876
  C     -1.525817    1.665797   12.124403
  H     -2.395287    1.849137   12.583126
  C     -0.848162    0.441462   12.762937
  H     -0.686584    0.611326   13.724759
  H     -1.439209   -0.348688   12.682734
  C      0.483920    0.168038   12.052721
  H      0.917372   -0.636530   12.458659
  C      0.217526   -0.093734   10.562519
  H     -0.366699   -0.887381   10.468170
  H      1.073860   -0.288480   10.105455
  C      0.478147    2.333853   10.079583
  H      0.072233    3.136622    9.666193
  H      1.340543    2.157983    9.626344
  C      0.729390    2.598400   11.579544
  H      1.326492    3.394537   11.677689
  C     -0.590062    2.873281   12.281970
  H     -1.014756    3.677772   11.891414
  H     -0.426828    3.045777   13.243060
  C      1.406522    1.378497   12.215462
  H      2.274432    1.204175   11.772262
  H      1.575590    1.548083   13.176074
  C      9.674114    5.786946    5.671998
  C     10.838988    5.937057    6.307297
  H     11.625280    5.850045    5.781307
  C     11.033050    6.226963    7.756160
  H     11.479258    5.563590    8.269299
  C     10.636408    7.342178    8.413564
  C      9.901915    8.443438    7.728235
  H     10.307283    9.302318    7.705738
  C      8.710800    8.298727    7.144286
  H      8.312540    9.079626    6.778112
  C      7.954860    7.037744    7.014673
  H      7.088930    7.009127    7.404357
  C      8.381665    5.935438    6.398299
  H      7.810630    5.176666    6.424481
  C      9.569828    5.415060    4.180727
  C      8.921158    6.591160    3.443570
  H      8.026663    6.767888    3.829289
  H      9.474162    7.402760    3.568431
  C      8.780993    6.297203    1.950331
  H      8.355963    7.079521    1.494983
  C     10.132685    6.027540    1.331483
  H     10.706610    6.828986    1.423104
  H     10.024448    5.834265    0.366596
  C     10.797041    4.838699    2.021845
  H     11.698331    4.675841    1.620378
  C     10.946354    5.154816    3.531282
  H     11.386255    4.393057    3.985505
  H     11.520769    5.953004    3.645513
  C      8.698790    4.142084    3.972879
  H      9.128405    3.369635    4.418806
  H      7.808416    4.278582    4.383598
  C      8.534346    3.845159    2.471962
  H      7.958545    3.036442    2.351826
  C      7.887058    5.045760    1.768524
  H      6.990908    5.215863    2.153342
  H      7.777803    4.849724    0.804312
  C      9.919573    3.588366    1.851089
  H     10.348131    2.814931    2.296313
  H      9.821482    3.376732    0.888958
  C     10.968759    7.577204    9.886415
  C      9.657143    7.855408   10.626355
  H      9.051450    7.079069   10.523739
  H      9.214231    8.644048   10.223876
  C      9.902783    8.116897   12.124403
  H      9.033313    8.300237   12.583126
  C     10.580438    6.892562   12.762937
  H     10.742016    7.062426   13.724759
  H      9.989391    6.102412   12.682734
  C     11.912520    6.619138   12.052721
  H     12.345972    5.814570   12.458659
  C     11.646126    6.357366   10.562519
  H     11.061901    5.563719   10.468170
  H     12.502460    6.162620   10.105455
  C     11.906747    8.784953   10.079583
  H     11.500833    9.587722    9.666193
  H     12.769143    8.609083    9.626344
  C     12.157990    9.049500   11.579544
  H     12.755092    9.845637   11.677689
  C     10.838538    9.324381   12.281970
  H     10.413844   10.128872   11.891414
  H     11.001772    9.496877   13.243060
  C     12.835122    7.829597   12.215462
  H     13.703032    7.655275   11.772262
  H     13.004190    7.999183   13.176074
  C      3.959814   -3.889704    5.671998
  C      5.124688   -3.739593    6.307297
  H      5.910980   -3.826605    5.781307
  C      5.318750   -3.449687    7.756160
  H      5.764958   -4.113060    8.269299
  C      4.922108   -2.334472    8.413564
  C      4.187615   -1.233212    7.728235
  H      4.592983   -0.374332    7.705738
  C      2.996500   -1.377923    7.144286
  H      2.598240   -0.597024    6.778112
  C      2.240560   -2.638906    7.014673
  H      1.374630   -2.667523    7.404357
  C      2.667365   -3.741212    6.398299
  H      2.096330   -4.499984    6.424481
  C      3.855528   -4.261590    4.180727
  C      3.206858   -3.085490    3.443570
  H      2.312363   -2.908762    3.829289
  H      3.759862   -2.273890    3.568431
  C      3.066693   -3.379447    1.950331
  H      2.641663   -2.597129    1.494983
  C      4.418385   -3.649110    1.331483
  H      4.992310   -2.847664    1.423104
  H      4.310148   -3.842385    0.366596
  C      5.082741   -4.837951    2.021845
  H      5.984031   -5.000809    1.620378
  C      5.232054   -4.521834    3.531282
  H      5.671955   -5.283593    3.985505
  H      5.806469   -3.723646    3.645513
  C      2.984490   -5.534566    3.972879
  H      3.414105   -6.307015    4.418806
  H      2.094116   -5.398068    4.383598
  C      2.820046   -5.831491    2.471962
  H      2.244245   -6.640208    2.351826
  C      2.172758   -4.630890    1.768524
  H      1.276608   -4.460787    2.153342
  H      2.063503   -4.826926    0.804312
  C      4.205273   -6.088284    1.851089
  H      4.633831   -6.861719    2.296313
  H      4.107182   -6.299918    0.888958
  C      5.254459   -2.099446    9.886415
  C      3.942843   -1.821242   10.626355
  H      3.337150   -2.597581   10.523739
  H      3.499931   -1.032602   10.223876
  C      4.188483   -1.559753   12.124403
  H      3.319013   -1.376413   12.583126
  C      4.866138   -2.784088   12.762937
  H      5.027716   -2.614224   13.724759
  H      4.275091   -3.574238   12.682734
  C      6.198220   -3.057512   12.052721
  H      6.631672   -3.862080   12.458659
  C      5.931826   -3.319284   10.562519
  H      5.347601   -4.112931   10.468170
  H      6.788160   -3.514030   10.105455
  C      6.192447   -0.891697   10.079583
  H      5.786533   -0.088928    9.666193
  H      7.054843   -1.067567    9.626344
  C      6.443690   -0.627150   11.579544
  H      7.040792    0.168987   11.677689
  C      5.124238   -0.352269   12.281970
  H      4.699544    0.452222   11.891414
  H      5.287472   -0.179773   13.243060
  C      7.120822   -1.847053   12.215462
  H      7.988732   -2.021375   11.772262
  H      7.289890   -1.677467   13.176074
  C      1.754486    5.786946   -5.671998
  C      0.589612    5.937057   -6.307297
  H     -0.196680    5.850045   -5.781307
  C      0.395550    6.226963   -7.756160
  H     -0.050658    5.563590   -8.269299
  C      0.792192    7.342178   -8.413564
  C      1.526685    8.443438   -7.728235
  H      1.121317    9.302318   -7.705738
  C      2.717800    8.298727   -7.144286
  H      3.116060    9.079626   -6.778112
  C      3.473740    7.037744   -7.014673
  H      4.339670    7.009127   -7.404357
  C      3.046935    5.935438   -6.398299
  H      3.617970    5.176666   -6.424481
  C      1.858772    5.415060   -4.180727
  C      2.507442    6.591160   -3.443570
  H      3.401937    6.767888   -3.829289
  H      1.954438    7.402760   -3.568431
  C      2.647607    6.297203   -1.950331
  H      3.072637    7.079521   -1.494983
  C      1.295915    6.027540   -1.331483
  H      0.721990    6.828986   -1.423104
  H      1.404152    5.834265   -0.366596
  C      0.631559    4.838699   -2.021845
  H     -0.269731    4.675841   -1.620378
  C      0.482246    5.154816   -3.531282
  H      0.042345    4.393057   -3.985505
  H     -0.092169    5.953004   -3.645513
  C      2.729810    4.142084   -3.972879
  H      2.300195    3.369635   -4.418806
  H      3.620184    4.278582   -4.383598
  C      2.894254    3.845159   -2.471962
  H      3.470055    3.036442   -2.351826
  C      3.541542    5.045760   -1.768524
  H      4.437692    5.215863   -2.153342
  H      3.650797    4.849724   -0.804312
  C      1.509027    3.588366   -1.851089
  H      1.080469    2.814931   -2.296313
  H      1.607118    3.376732   -0.888958
  C      0.459841    7.577204   -9.886415
  C      1.771457    7.855408  -10.626355
  H      2.377150    7.079069  -10.523739
  H      2.214369    8.644048  -10.223876
  C      1.525817    8.116897  -12.124403
  H      2.395287    8.300237  -12.583126
  C      0.848162    6.892562  -12.762937
  H      0.686584    7.062426  -13.724759
  H      1.439209    6.102412  -12.682734
  C     -0.483920    6.619138  -12.052721
  H     -0.917372    5.814570  -12.458659
  C     -0.217526    6.357366  -10.562519
  H      0.366699    5.563719  -10.468170
  H     -1.073860    6.162620  -10.105455
  C     -0.478147    8.784953  -10.079583
  H     -0.072233    9.587722   -9.666193
  H     -1.340543    8.609083   -9.626344
  C     -0.729390    9.049500  -11.579544
  H     -1.326492    9.845637  -11.677689
  C      0.590062    9.324381  -12.281970
  H      1.014756   10.128872  -11.891414
  H      0.426828    9.496877  -13.243060
  C     -1.406522    7.829597  -12.215462
  H     -2.274432    7.655275  -11.772262
  H     -1.575590    7.999183  -13.176074
  C      1.754486   -0.664154   -5.671998
  C      0.589612   -0.514043   -6.307297
  H     -0.196680   -0.601055   -5.781307
  C      0.395550   -0.224137   -7.756160
  H     -0.050658   -0.887510   -8.269299
  C      0.792192    0.891078   -8.413564
  C      1.526685    1.992338   -7.728235
  H      1.121317    2.851218   -7.705738
  C      2.717800    1.847627   -7.144286
  H      3.116060    2.628526   -6.778112
  C      3.473740    0.586644   -7.014673
  H      4.339670    0.558027   -7.404357
  C      3.046935   -0.515662   -6.398299
  H      3.617970   -1.274434   -6.424481
  C      1.858772   -1.036040   -4.180727
  C      2.507442    0.140060   -3.443570
  H      3.401937    0.316788   -3.829289
  H      1.954438    0.951660   -3.568431
  C      2.647607   -0.153897   -1.950331
  H      3.072637    0.628421   -1.494983
  C      1.295915   -0.423560   -1.331483
  H      0.721990    0.377886   -1.423104
  H      1.404152   -0.616835   -0.366596
  C      0.631559   -1.612401   -2.021845
  H     -0.269731   -1.775259   -1.620378
  C      0.482246   -1.296284   -3.531282
  H      0.042345   -2.058043   -3.985505
  H     -0.092169   -0.498096   -3.645513
  C      2.729810   -2.309016   -3.972879
  H      2.300195   -3.081465   -4.418806
  H      3.620184   -2.172518   -4.383598
  C      2.894254   -2.605941   -2.471962
  H      3.470055   -3.414658   -2.351826
  C      3.541542   -1.405340   -1.768524
  H      4.437692   -1.235237   -2.153342
  H      3.650797   -1.601376   -0.804312
  C      1.509027   -2.862734   -1.851089
  H      1.080469   -3.636169   -2.296313
  H      1.607118   -3.074368   -0.888958
  C      0.459841    1.126104   -9.886415
  C      1.771457    1.404308  -10.626355
  H      2.377150    0.627969  -10.523739
  H      2.214369    2.192948  -10.223876
  C      1.525817    1.665797  -12.124403
  H      2.395287    1.849137  -12.583126
  C      0.848162    0.441462  -12.762937
  H      0.686584    0.611326  -13.724759
  H      1.439209   -0.348688  -12.682734
  C     -0.483920    0.168038  -12.052721
  H     -0.917372   -0.636530  -12.458659
  C     -0.217526   -0.093734  -10.562519
  H      0.366699   -0.887381  -10.468170
  H     -1.073860   -0.288480  -10.105455
  C     -0.478147    2.333853  -10.079583
  H     -0.072233    3.136622   -9.666193
  H     -1.340543    2.157983   -9.626344
  C     -0.729390    2.598400  -11.579544
  H     -1.326492    3.394537  -11.677689
  C      0.590062    2.873281  -12.281970
  H      1.014756    3.677772  -11.891414
  H      0.426828    3.045777  -13.243060
  C     -1.406522    1.378497  -12.215462
  H     -2.274432    1.204175  -11.772262
  H     -1.575590    1.548083  -13.176074
  C      8.845181    5.786946   22.449799
  C      7.680306    5.937057   21.814500
  H      6.894014    5.850045   22.340490
  C      7.486244    6.226963   20.365637
  H      7.040037    5.563590   19.852498
  C      7.882887    7.342178   19.708233
  C      8.617380    8.443438   20.393561
  H      8.212011    9.302318   20.416059
  C      9.808495    8.298727   20.977511
  H     10.206755    9.079626   21.343684
  C     10.564435    7.037744   21.107124
  H     11.430364    7.009127   20.717440
  C     10.137630    5.935438   21.723497
  H     10.708664    5.176666   21.697316
  C      8.949467    5.415060   23.941070
  C      9.598136    6.591160   24.678227
  H     10.492631    6.767888   24.292508
  H      9.045132    7.402760   24.553366
  C      9.738301    6.297203   26.171466
  H     10.163332    7.079521   26.626814
  C      8.386610    6.027540   26.790314
  H      7.812684    6.828986   26.698693
  H      8.494847    5.834265   27.755201
  C      7.722253    4.838699   26.099952
  H      6.820963    4.675841   26.501419
  C      7.572941    5.154816   24.590515
  H      7.133040    4.393057   24.136291
  H      6.998526    5.953004   24.476284
  C      9.820505    4.142084   24.148918
  H      9.390889    3.369635   23.702991
  H     10.710879    4.278582   23.738199
  C      9.984949    3.845159   25.649835
  H     10.560750    3.036442   25.769971
  C     10.632236    5.045760   26.353273
  H     11.528387    5.215863   25.968455
  H     10.741492    4.849724   27.317485
  C      8.599722    3.588366   26.270708
  H      8.171164    2.814931   25.825483
  H      8.697812    3.376732   27.232839
  C      7.550536    7.577204   18.235382
  C      8.862152    7.855408   17.495442
  H      9.467845    7.079069   17.598058
  H      9.305063    8.644048   17.897921
  C      8.616511    8.116897   15.997393
  H      9.485982    8.300237   15.538671
  C      7.938857    6.892562   15.358860
  H      7.777278    7.062426   14.397038
  H      8.529904    6.102412   15.439063
  C      6.606774    6.619138   16.069076
  H      6.173322    5.814570   15.663138
  C      6.873169    6.357366   17.559278
  H      7.457394    5.563719   17.653627
  H      6.016834    6.162620   18.016342
  C      6.612548    8.784953   18.042214
  H      7.018462    9.587722   18.455604
  H      5.750152    8.609083   18.495453
  C      6.361304    9.049500   16.542253
  H      5.764202    9.845637   16.444108
  C      7.680757    9.324381   15.839827
  H      8.105450   10.128872   16.230383
  H      7.517523    9.496877   14.878736
  C      5.684173    7.829597   15.906335
  H      4.816262    7.655275   16.349535
  H      5.515105    7.999183   14.945723
  C      8.845181   -0.664154   22.449799
  C      7.680306   -0.514043   21.814500
  H      6.894014   -0.601055   22.340490
  C      7.486244   -0.224137   20.365637
  H      7.040037   -0.887510   19.852498
  C      7.882887    0.891078   19.708233
  C      8.617380    1.992338   20.393561
  H      8.212011    2.851218   20.416059
  C      9.808495    1.847627   20.977511
  H     10.206755    2.628526   21.343684
  C     10.564435    0.586644   21.107124
  H     11.430364    0.558027   20.717440
  C     10.137630   -0.515662   21.723497
  H     10.708664   -1.274434   21.697316
  C      8.949467   -1.036040   23.941070
  C      9.598136    0.140060   24.678227
  H     10.492631    0.316788   24.292508
  H      9.045132    0.951660   24.553366
  C      9.738301   -0.153897   26.171466
  H     10.163332    0.628421   26.626814
  C      8.386610   -0.423560   26.790314
  H      7.812684    0.377886   26.698693
  H      8.494847   -0.616835   27.755201
  C      7.722253   -1.612401   26.099952
  H      6.820963   -1.775259   26.501419
  C      7.572941   -1.296284   24.590515
  H      7.133040   -2.058043   24.136291
  H      6.998526   -0.498096   24.476284
  C      9.820505   -2.309016   24.148918
  H      9.390889   -3.081465   23.702991
  H     10.710879   -2.172518   23.738199
  C      9.984949   -2.605941   25.649835
  H     10.560750   -3.414658   25.769971
  C     10.632236   -1.405340   26.353273
  H     11.528387   -1.235237   25.968455
  H     10.741492   -1.601376   27.317485
  C      8.599722   -2.862734   26.270708
  H      8.171164   -3.636169   25.825483
  H      8.697812   -3.074368   27.232839
  C      7.550536    1.126104   18.235382
  C      8.862152    1.404308   17.495442
  H      9.467845    0.627969   17.598058
  H      9.305063    2.192948   17.897921
  C      8.616511    1.665797   15.997393
  H      9.485982    1.849137   15.538671
  C      7.938857    0.441462   15.358860
  H      7.777278    0.611326   14.397038
  H      8.529904   -0.348688   15.439063
  C      6.606774    0.168038   16.069076
  H      6.173322   -0.636530   15.663138
  C      6.873169   -0.093734   17.559278
  H      7.457394   -0.887381   17.653627
  H      6.016834   -0.288480   18.016342
  C      6.612548    2.333853   18.042214
  H      7.018462    3.136622   18.455604
  H      5.750152    2.157983   18.495453
  C      6.361304    2.598400   16.542253
  H      5.764202    3.394537   16.444108
  C      7.680757    2.873281   15.839827
  H      8.105450    3.677772   16.230383
  H      7.517523    3.045777   14.878736
  C      5.684173    1.378497   15.906335
  H      4.816262    1.204175   16.349535
  H      5.515105    1.548083   14.945723

----------------------------
CARTESIAN COORDINATES (A.U.)
----------------------------
  NO LB      ZA    FRAG     MASS         X           Y           Z
   0 C     6.0000    2    12.011   18.281426   -1.255069   10.718523
   1 C     6.0000    2    12.011   20.482719   -0.971400   11.919064
   2 H     1.0000    2     1.008   21.968595   -1.135829   10.925087
   3 C     6.0000    2    12.011   20.849443   -0.423558   14.657018
   4 H     1.0000    2     1.008   21.692654   -1.677151   15.626710
   5 C     6.0000    2    12.011   20.099898    1.683893   15.899332
   6 C     6.0000    2    12.011   18.711908    3.764973   14.604248
   7 H     1.0000    2     1.008   19.477942    5.388021   14.561734
   8 C     6.0000    2    12.011   16.461026    3.491509   13.500744
   9 H     1.0000    2     1.008   15.708424    4.967194   12.808775
  10 C     6.0000    2    12.011   15.032507    1.108596   13.255811
  11 H     1.0000    2     1.008   13.396136    1.054518   13.992207
  12 C     6.0000    2    12.011   15.839051   -0.974460   12.091033
  13 H     1.0000    2     1.008   14.759952   -2.408331   12.140510
  14 C     6.0000    2    12.011   18.084354   -1.957832    7.900429
  15 C     6.0000    2    12.011   16.858545    0.264675    6.507404
  16 H     1.0000    2     1.008   15.168195    0.598643    7.236307
  17 H     1.0000    2     1.008   17.903572    1.798377    6.743357
  18 C     6.0000    2    12.011   16.593672   -0.290823    3.685591
  19 H     1.0000    2     1.008   15.790482    1.187544    2.825108
  20 C     6.0000    2    12.011   19.148000   -0.800412    2.516138
  21 H     1.0000    2     1.008   20.232561    0.714101    2.689277
  22 H     1.0000    2     1.008   18.943461   -1.165649    0.692766
  23 C     6.0000    2    12.011   20.403451   -3.046996    3.820733
  24 H     1.0000    2     1.008   22.106642   -3.354753    3.062071
  25 C     6.0000    2    12.011   20.685611   -2.449622    6.673156
  26 H     1.0000    2     1.008   21.516904   -3.889138    7.531513
  27 H     1.0000    2     1.008   21.771098   -0.941265    6.889021
  28 C     6.0000    2    12.011   16.438331   -4.363408    7.507653
  29 H     1.0000    2     1.008   17.250185   -5.823125    8.350333
  30 H     1.0000    2     1.008   14.755768   -4.105464    8.283800
  31 C     6.0000    2    12.011   16.127577   -4.924515    4.671331
  32 H     1.0000    2     1.008   15.039470   -6.452768    4.444307
  33 C     6.0000    2    12.011   14.904380   -2.655708    3.342026
  34 H     1.0000    2     1.008   13.210902   -2.334260    4.069227
  35 H     1.0000    2     1.008   14.697918   -3.026162    1.519929
  36 C     6.0000    2    12.011   18.745276   -5.409783    3.498051
  37 H     1.0000    2     1.008   19.555134   -6.871364    4.339403
  38 H     1.0000    2     1.008   18.559911   -5.809714    1.679887
  39 C     6.0000    2    12.011   20.727951    2.128028   18.682617
  40 C     6.0000    2    12.011   18.249356    2.653758   20.080901
  41 H     1.0000    2     1.008   17.104762    1.186689   19.886985
  42 H     1.0000    2     1.008   17.412373    4.144071   19.320326
  43 C     6.0000    2    12.011   18.713548    3.147900   22.911801
  44 H     1.0000    2     1.008   17.070488    3.494363   23.778662
  45 C     6.0000    2    12.011   19.994130    0.834242   24.118456
  46 H     1.0000    2     1.008   20.299468    1.155239   25.936036
  47 H     1.0000    2     1.008   18.877213   -0.658925   23.966894
  48 C     6.0000    2    12.011   22.511400    0.317546   22.776342
  49 H     1.0000    2     1.008   23.330506   -1.202867   23.543454
  50 C     6.0000    2    12.011   22.007989   -0.177132   19.960268
  51 H     1.0000    2     1.008   20.903963   -1.676907   19.781974
  52 H     1.0000    2     1.008   23.626225   -0.545148   19.096542
  53 C     6.0000    2    12.011   22.500491    4.410343   19.047651
  54 H     1.0000    2     1.008   21.733425    5.927357   18.266458
  55 H     1.0000    2     1.008   24.130183    4.077997   18.191154
  56 C     6.0000    2    12.011   22.975271    4.910264   21.882167
  57 H     1.0000    2     1.008   24.103631    6.414745   22.067634
  58 C     6.0000    2    12.011   20.481869    5.429714   23.209560
  59 H     1.0000    2     1.008   19.679313    6.949982   22.471516
  60 H     1.0000    2     1.008   20.790336    5.755684   25.025757
  61 C     6.0000    2    12.011   24.254865    2.604982   23.083878
  62 H     1.0000    2     1.008   25.894978    2.275561   22.246351
  63 H     1.0000    2     1.008   24.574358    2.925453   24.899171
  64 C     6.0000    3    12.011    7.482964   17.031149   10.718523
  65 C     6.0000    3    12.011    9.684257   17.314818   11.919064
  66 H     1.0000    3     1.008   11.170133   17.150389   10.925087
  67 C     6.0000    3    12.011   10.050981   17.862661   14.657018
  68 H     1.0000    3     1.008   10.894192   16.609068   15.626710
  69 C     6.0000    3    12.011    9.301436   19.970112   15.899332
  70 C     6.0000    3    12.011    7.913446   22.051192   14.604248
  71 H     1.0000    3     1.008    8.679480   23.674240   14.561734
  72 C     6.0000    3    12.011    5.662564   21.777727   13.500744
  73 H     1.0000    3     1.008    4.909962   23.253413   12.808775
  74 C     6.0000    3    12.011    4.234045   19.394815   13.255811
  75 H     1.0000    3     1.008    2.597674   19.340737   13.992207
  76 C     6.0000    3    12.011    5.040589   17.311758   12.091033
  77 H     1.0000    3     1.008    3.961490   15.877887   12.140510
  78 C     6.0000    3    12.011    7.285892   16.328387    7.900429
  79 C     6.0000    3    12.011    6.060083   18.550893    6.507404
  80 H     1.0000    3     1.008    4.369733   18.884861    7.236307
  81 H     1.0000    3     1.008    7.105109   20.084595    6.743357
  82 C     6.0000    3    12.011    5.795210   17.995395    3.685591
  83 H     1.0000    3     1.008    4.992020   19.473762    2.825108
  84 C     6.0000    3    12.011    8.349538   17.485806    2.516138
  85 H     1.0000    3     1.008    9.434099   19.000319    2.689277
  86 H     1.0000    3     1.008    8.144999   17.120569    0.692766
  87 C     6.0000    3    12.011    9.604988   15.239222    3.820733
  88 H     1.0000    3     1.008   11.308180   14.931465    3.062071
  89 C     6.0000    3    12.011    9.887149   15.836597    6.673156
  90 H     1.0000    3     1.008   10.718442   14.397081    7.531513
  91 H     1.0000    3     1.008   10.972636   17.344953    6.889021
  92 C     6.0000    3    12.011    5.639869   13.922811    7.507653
  93 H     1.0000    3     1.008    6.451723   12.463093    8.350333
  94 H     1.0000    3     1.008    3.957306   14.180754    8.283800
  95 C     6.0000    3    12.011    5.329115   13.361704    4.671331
  96 H     1.0000    3     1.008    4.241008   11.833450    4.444307
  97 C     6.0000    3    12.011    4.105918   15.630511    3.342026
  98 H     1.0000    3     1.008    2.412440   15.951959    4.069227
  99 H     1.0000    3     1.008    3.899456   15.260056    1.519929
 100 C     6.0000    3    12.011    7.946814   12.876435    3.498051
 101 H     1.0000    3     1.008    8.756672   11.414855    4.339403
 102 H     1.0000    3     1.008    7.761449   12.476505    1.679887
 103 C     6.0000    3    12.011    9.929488   20.414247   18.682617
 104 C     6.0000    3    12.011    7.450893   20.939976   20.080901
 105 H     1.0000    3     1.008    6.306300   19.472908   19.886985
 106 H     1.0000    3     1.008    6.613911   22.430290   19.320326
 107 C     6.0000    3    12.011    7.915086   21.434119   22.911801
 108 H     1.0000    3     1.008    6.272026   21.780581   23.778662
 109 C     6.0000    3    12.011    9.195668   19.120461   24.118456
 110 H     1.0000    3     1.008    9.501006   19.441457   25.936036
 111 H     1.0000    3     1.008    8.078751   17.627294   23.966894
 112 C     6.0000    3    12.011   11.712938   18.603764   22.776342
 113 H     1.0000    3     1.008   12.532044   17.083351   23.543454
 114 C     6.0000    3    12.011   11.209527   18.109087   19.960268
 115 H     1.0000    3     1.008   10.105501   16.609311   19.781974
 116 H     1.0000    3     1.008   12.827763   17.741070   19.096542
 117 C     6.0000    3    12.011   11.702029   22.696561   19.047651
 118 H     1.0000    3     1.008   10.934963   24.213575   18.266458
 119 H     1.0000    3     1.008   13.331721   22.364215   18.191154
 120 C     6.0000    3    12.011   12.176809   23.196483   21.882167
 121 H     1.0000    3     1.008   13.305169   24.700964   22.067634
 122 C     6.0000    3    12.011    9.683406   23.715933   23.209560
 123 H     1.0000    3     1.008    8.880851   25.236200   22.471516
 124 H     1.0000    3     1.008    9.991874   24.041903   25.025757
 125 C     6.0000    3    12.011   13.456403   20.891200   23.083878
 126 H     1.0000    3     1.008   15.096516   20.561779   22.246351
 127 H     1.0000    3     1.008   13.775896   21.211671   24.899171
 128 C     6.0000    4    12.011   -3.315498   10.935743   10.718523
 129 C     6.0000    4    12.011   -1.114205   11.219412   11.919064
 130 H     1.0000    4     1.008    0.371671   11.054983   10.925087
 131 C     6.0000    4    12.011   -0.747481   11.767255   14.657018
 132 H     1.0000    4     1.008    0.095730   10.513661   15.626710
 133 C     6.0000    4    12.011   -1.497026   13.874706   15.899332
 134 C     6.0000    4    12.011   -2.885017   15.955785   14.604248
 135 H     1.0000    4     1.008   -2.118982   17.578833   14.561734
 136 C     6.0000    4    12.011   -5.135898   15.682321   13.500744
 137 H     1.0000    4     1.008   -5.888500   17.158007   12.808775
 138 C     6.0000    4    12.011   -6.564417   13.299409   13.255811
[...]
                          ----------------------
Total interaction                -0.000005348811 (   -0.003 kcal/mol)
Interaction of Fragments   8 and   6:
-------------------------------------
Interfragment reference          -0.000014303053 (   -0.009 kcal/mol)
Interfragment correlation         0.000000000000 (    0.000 kcal/mol)
                          ----------------------
Total interaction                -0.000014303053 (   -0.009 kcal/mol)
Interaction of Fragments   8 and   7:
-------------------------------------
Interfragment reference          -0.000002206701 (   -0.001 kcal/mol)
Interfragment correlation         0.000000000000 (    0.000 kcal/mol)
                          ----------------------
Total interaction                -0.000002206701 (   -0.001 kcal/mol)

Interaction of Fragments   9 and   1:
-------------------------------------
Interfragment reference           0.000000000000 (    0.000 kcal/mol)
Interfragment correlation         0.000000000000 (    0.000 kcal/mol)
                          ----------------------
Total interaction                 0.000000000000 (    0.000 kcal/mol)
Interaction of Fragments   9 and   2:
-------------------------------------
Interfragment reference          -0.000013795895 (   -0.009 kcal/mol)
Interfragment correlation         0.000000000000 (    0.000 kcal/mol)
                          ----------------------
Total interaction                -0.000013795895 (   -0.009 kcal/mol)
Interaction of Fragments   9 and   3:
-------------------------------------
Interfragment reference          -0.000001943890 (   -0.001 kcal/mol)
Interfragment correlation         0.000000000000 (    0.000 kcal/mol)
                          ----------------------
Total interaction                -0.000001943890 (   -0.001 kcal/mol)
Interaction of Fragments   9 and   4:
-------------------------------------
Interfragment reference          -0.000005400614 (   -0.003 kcal/mol)
Interfragment correlation         0.000000000000 (    0.000 kcal/mol)
                          ----------------------
Total interaction                -0.000005400614 (   -0.003 kcal/mol)
Interaction of Fragments   9 and   5:
-------------------------------------
Interfragment reference          -0.004359521148 (   -2.736 kcal/mol)
Interfragment correlation         0.000000000000 (    0.000 kcal/mol)
                          ----------------------
Total interaction                -0.004359521148 (   -2.736 kcal/mol)
Interaction of Fragments   9 and   6:
-------------------------------------
Interfragment reference          -0.000001987519 (   -0.001 kcal/mol)
Interfragment correlation         0.000000000000 (    0.000 kcal/mol)
                          ----------------------
Total interaction                -0.000001987519 (   -0.001 kcal/mol)
Interaction of Fragments   9 and   7:
-------------------------------------
Interfragment reference          -0.005943572411 (   -3.730 kcal/mol)
Interfragment correlation         0.000000000000 (    0.000 kcal/mol)
                          ----------------------
Total interaction                -0.005943572411 (   -3.730 kcal/mol)
Interaction of Fragments   9 and   8:
-------------------------------------
Interfragment reference          -0.018582935925 (  -11.661 kcal/mol)
Interfragment correlation         0.000000000000 (    0.000 kcal/mol)
                          ----------------------
Total interaction                -0.018582935925 (  -11.661 kcal/mol)

Interaction of Fragments  10 and   1:
-------------------------------------
Interfragment reference           0.000000000000 (    0.000 kcal/mol)
Interfragment correlation         0.000000000000 (    0.000 kcal/mol)
                          ----------------------
Total interaction                 0.000000000000 (    0.000 kcal/mol)
Interaction of Fragments  10 and   2:
-------------------------------------
Interfragment reference          -0.000004628299 (   -0.003 kcal/mol)
Interfragment correlation         0.000000000000 (    0.000 kcal/mol)
                          ----------------------
Total interaction                -0.000004628299 (   -0.003 kcal/mol)
Interaction of Fragments  10 and   3:
-------------------------------------
Interfragment reference          -0.005973715225 (   -3.749 kcal/mol)
Interfragment correlation         0.000000000000 (    0.000 kcal/mol)
                          ----------------------
Total interaction                -0.005973715225 (   -3.749 kcal/mol)
Interaction of Fragments  10 and   4:
-------------------------------------
Interfragment reference          -0.000015967976 (   -0.010 kcal/mol)
Interfragment correlation         0.000000000000 (    0.000 kcal/mol)
                          ----------------------
Total interaction                -0.000015967976 (   -0.010 kcal/mol)
Interaction of Fragments  10 and   5:
-------------------------------------
Interfragment reference          -0.000001211043 (   -0.001 kcal/mol)
Interfragment correlation         0.000000000000 (    0.000 kcal/mol)
                          ----------------------
Total interaction                -0.000001211043 (   -0.001 kcal/mol)
Interaction of Fragments  10 and   6:
-------------------------------------
Interfragment reference          -0.004899011796 (   -3.074 kcal/mol)
Interfragment correlation         0.000000000000 (    0.000 kcal/mol)
                          ----------------------
Total interaction                -0.004899011796 (   -3.074 kcal/mol)
Interaction of Fragments  10 and   7:
-------------------------------------
Interfragment reference          -0.000002386972 (   -0.001 kcal/mol)
Interfragment correlation         0.000000000000 (    0.000 kcal/mol)
                          ----------------------
Total interaction                -0.000002386972 (   -0.001 kcal/mol)
Interaction of Fragments  10 and   8:
-------------------------------------
Interfragment reference          -0.000000486875 (   -0.000 kcal/mol)
Interfragment correlation         0.000000000000 (    0.000 kcal/mol)
                          ----------------------
Total interaction                -0.000000486875 (   -0.000 kcal/mol)
Interaction of Fragments  10 and   9:
-------------------------------------
Interfragment reference          -0.000000379974 (   -0.000 kcal/mol)
Interfragment correlation         0.000000000000 (    0.000 kcal/mol)
                          ----------------------
Total interaction                -0.000000379974 (   -0.000 kcal/mol)

Interaction of Fragments  11 and   1:
-------------------------------------
Interfragment reference           0.000000000000 (    0.000 kcal/mol)
Interfragment correlation         0.000000000000 (    0.000 kcal/mol)
                          ----------------------
Total interaction                 0.000000000000 (    0.000 kcal/mol)
Interaction of Fragments  11 and   2:
-------------------------------------
Interfragment reference          -0.004928965026 (   -3.093 kcal/mol)
Interfragment correlation         0.000000000000 (    0.000 kcal/mol)
                          ----------------------
Total interaction                -0.004928965026 (   -3.093 kcal/mol)
Interaction of Fragments  11 and   3:
-------------------------------------
Interfragment reference          -0.000002328948 (   -0.001 kcal/mol)
Interfragment correlation         0.000000000000 (    0.000 kcal/mol)
                          ----------------------
Total interaction                -0.000002328948 (   -0.001 kcal/mol)
Interaction of Fragments  11 and   4:
-------------------------------------
Interfragment reference          -0.000000891981 (   -0.001 kcal/mol)
Interfragment correlation         0.000000000000 (    0.000 kcal/mol)
                          ----------------------
Total interaction                -0.000000891981 (   -0.001 kcal/mol)
Interaction of Fragments  11 and   5:
-------------------------------------
Interfragment reference          -0.000017198723 (   -0.011 kcal/mol)
Interfragment correlation         0.000000000000 (    0.000 kcal/mol)
                          ----------------------
Total interaction                -0.000017198723 (   -0.011 kcal/mol)
Interaction of Fragments  11 and   6:
-------------------------------------
Interfragment reference          -0.000004999792 (   -0.003 kcal/mol)
Interfragment correlation         0.000000000000 (    0.000 kcal/mol)
                          ----------------------
Total interaction                -0.000004999792 (   -0.003 kcal/mol)
Interaction of Fragments  11 and   7:
-------------------------------------
Interfragment reference          -0.005966699673 (   -3.744 kcal/mol)
Interfragment correlation         0.000000000000 (    0.000 kcal/mol)
                          ----------------------
Total interaction                -0.005966699673 (   -3.744 kcal/mol)
Interaction of Fragments  11 and   8:
-------------------------------------
Interfragment reference          -0.000000265250 (   -0.000 kcal/mol)
Interfragment correlation         0.000000000000 (    0.000 kcal/mol)
                          ----------------------
Total interaction                -0.000000265250 (   -0.000 kcal/mol)
Interaction of Fragments  11 and   9:
-------------------------------------
Interfragment reference          -0.000000413746 (   -0.000 kcal/mol)
Interfragment correlation         0.000000000000 (    0.000 kcal/mol)
                          ----------------------
Total interaction                -0.000000413746 (   -0.000 kcal/mol)
Interaction of Fragments  11 and  10:
-------------------------------------
Interfragment reference          -0.018580786432 (  -11.660 kcal/mol)
Interfragment correlation         0.000000000000 (    0.000 kcal/mol)
                          ----------------------
Total interaction                -0.018580786432 (  -11.660 kcal/mol)


Sum of INTRA-fragment total energies        =    -10812.583602145074
Sum of INTER-fragment total energies        =        -0.183077424827
                                              ---------------------
Total energy                                =    -10812.766679569901


#Time for LED analysis ..   34404.8 (sec)



--------------------------------------------------------------------------------
                                    TIMINGS
--------------------------------------------------------------------------------


Total execution time                   ...    62282.985 sec

Localization of occupied MO's          ...     1227.801 sec (  2.0%)
Fock Matrix Formation                  ...    17711.121 sec ( 28.4%)
Global overlap, Fock, MKN matrices     ...      276.023 sec (  0.4%)
Differential overlap integrals         ...     1365.873 sec (  2.2%)
Organizing maps                        ...        4.494 sec (  0.0%)
RI 3-index integral generations        ...     7038.957 sec ( 11.3%)
Initial Guess                          ...      173.526 sec (  0.3%)


Maximum memory used throughout the entire MDCI-calculation: 31473.4 MB

-------------------------   --------------------
FINAL SINGLE POINT ENERGY    -10812.766680087121
-------------------------   --------------------


                            ***************************************
                            *     ORCA property calculations      *
                            ***************************************

                                    ---------------------
                                    Active property flags
                                    ---------------------
   (+) Dipole Moment


------------------------------------------------------------------------------
                       ORCA ELECTRIC PROPERTIES CALCULATION
------------------------------------------------------------------------------

Dipole Moment Calculation                       ... ON
Quadrupole Moment Calculation                   ... OFF
Polarizability Calculation                      ... OFF
Atomic Dipole Moment Calculation                ... OFF
Atomic Quadrupole Moment Calculation            ... OFF
Atomic Polarizability Calculation               ... OFF
GBWName                                         ... m2.gbw
Electron density                                ... m2.scfp

The origin for moment calculation is the CENTER OF MASS  = ( 8.671323,  6.341427 13.289334)

-------------
DIPOLE MOMENT
-------------
                                X             Y             Z
Electronic contribution:     -3.43079       9.98414       0.02021
Nuclear contribution   :      3.30109      -9.53215      -0.05962
                        -----------------------------------------
Total Dipole Moment    :     -0.12970       0.45199      -0.03941
                        -----------------------------------------
Magnitude (a.u.)       :      0.47188
Magnitude (Debye)      :      1.19942



--------------------
Rotational spectrum 
--------------------
 
Rotational constants in cm-1:     0.000139     0.000040     0.000038 
Rotational constants in MHz :     4.161073     1.188783     1.132437 

 Dipole components along the rotational axes: 
x,y,z [a.u.] :    -0.068296     0.454624     0.106400 
x,y,z [Debye]:    -0.173595     1.155561     0.270448 

 

--------------------------------
SUGGESTED CITATIONS FOR THIS RUN
--------------------------------

Below you find a list of papers that are relevant to this ORCA run
We neither can nor want to force you to cite these paper, but we appreciate if you do
You receive ORCA, which is the product of a lot of hard work by many enthusiastic individuals, for free
The only thing we kindly ask in return is that you cite our papers,
We deeply appreciate it, if you show your appreciation for ORCA by not just citing the generic ORCA reference.

Please note that relegating all ORCA citations to the supporting information does *not* help us.
SI sections are not indexed - citations you put there will not count into any citation statistics
But we need these citations in order to attract the funding resources that allow us to do what we are doing

Therefore, if you are a happy ORCA user, please consider citing a few of the papers listed below in the main body of your paper

In addition to the list printed below, the program has created the file m2.bibtex that contains the list in bibtex format
You can import this file easily into all common literature databanks and citation aid programs


List of essential papers. We consider these as the minimum necessary citations

  1. Neese,F.
     Software update: the ORCA program system, version 5.0
     WIRES Comput. Molec. Sci., 2022 12(1)e1606
     doi.org/10.1002/wcms.1606

List of papers to cite with high priority. The work reported in these papers was absolutely
necessary for this run to complete.
Our perspective: the developers of density functionals and basis sets usually get cited in chemistry papers
Good! But without the algorithms to do something with them, the functionals or basis sets would not do anything.
Hence, in our opinion, the algorithm design and method developments papers are equally worthy of getting cited

  1. Neese,F.
     An improvement of the resolution of the identity approximation for the formation of the Coulomb matrix
     J. Comp. Chem., 2003 24(14)1740-1747
     doi.org/10.1002/jcc.10318
  2. Neese,F.; Wennmohs,F.; Hansen,A.; Becker,U.
     Efficient, approximate and parallel Hartree-Fock and hybrid DFT calculations. A 'chain-of-spheres' algorithm for the Hartree-Fock exchange
     Chem. Phys., 2009 356(1-3)98-109
     doi.org/10.1016/j.chemphys.2008.10.036
  3. Neese,F.; Hansen,A.; Liakos,D.G.
     Efficient and accurate approximations to the local coupled cluster singles doubles method using a truncated pair natural orbital basis
     J. Chem. Phys., 2009 131 064103
     doi.org/10.1063/1.3173827
  4. Neese,F.; Wennmohs,F.; Hansen,A.
     Efficient and accurate local approximations to coupled-electron pair approaches: An attempt to revive the pair natural orbital method
     J. Chem. Phys., 2009 130 114108
     doi.org/10.1063/1.3086717
  5. Riplinger,C.; Neese,F.
     An efficient and near linear scaling pair natural orbital based local coupled cluster method
     J. Chem. Phys., 2013 138(3)Art. No. 034106
     doi.org/10.1063/1.4773581
  6. Datta,D.; Kossmann,S.; Neese,F.
     Analytic energy derivatives for the calculation of the first-order molecular properties using the domain-based local pair-natural orbital coupled-cluster theory
     J. Chem. Phys., 2016 145 
     doi.org/10.1063/1.4962369
  7. Riplinger,C.; Pinski,P.; Becker,U.; Valeev,E.F.; Neese,F.
     Sparse maps-A systematic infrastructure for reduced-scaling electronic structure methods. II. Linear scaling domain based pair natural orbital coupled cluster theory
     J. Chem. Phys., 2016 144 
     doi.org/10.1063/1.4939030
  8. Schneider,W.B.; Bistoni,G.; Sparta,M.; Saitow,M.; Riplinger,C.; Auer,A.A.; Neese,F.
     Decomposition of Intermolecular Interaction Energies within the Local Pair Natural Orbital Coupled Cluster Framework
     J. Theo. Comp. Chem., 2016 12 4778-4792
     doi.org/10.1021/acs.jctc.6b00523
  9. Bistoni,G.; Riplinger,C.; Minenkov,Y.; Cavallo,L.; Auer,A.A.; Neese,F.
     Treating Subvalence Correlation Effects in Domain Based Pair Natural Orbital Coupled Cluster Calculations: An Out-of-the-Box Approach
     J. Theo. Comp. Chem., 2017 13 3220-3227
     doi.org/10.1021/acs.jctc.7b00352
 10. Helmich-Paris,B.; de Souza,B.; Neese,F.; Izsk,R.
     An improved chain of spheres for exchange algorithm
     J. Chem. Phys., 2021 155 104109
     doi.org/doi: 10.1063/5.0058766.
 11. Neese,F.
     The SHARK Integral Generation and Digestion System
     J. Comp. Chem., 2022  1-16
     doi.org/10.1002/jcc.26942

List of suggested additional citations. These are papers that are important in the 'surrounding' of 
of this run, or papers that preceded the highly important papers. If you like your results we are grateful for a citation.

  1. Izsak,R.; Neese,F.
     An overlap fitted chain of spheres exchange method
     J. Chem. Phys., 2011 135 144105
     doi.org/10.1063/1.3646921
  2. Izsak,R.; Hansen,A.; Neese,F.
     The resolution of identity and chain of spheres approximations for the LPNO-CCSD singles Fock term
     Molec. Phys., 2012 110 2413-2417
     doi.org/10.1080/00268976.2012.687466
  3. Neese,F.
     The ORCA program system
     WIRES Comput. Molec. Sci., 2012 2(1)73-78
     doi.org/10.1002/wcms.81
  4. Izsak,R.; Neese,F.; Klopper,W.
     Robust fitting techniques in the chain of spheres approximation to the Fock exchange: The role of the complementary space
     J. Chem. Phys., 2013 139 
     doi.org/10.1063/1.4819264
  5. Neese,F.
     Software update: the ORCA program system, version 4.0
     WIRES Comput. Molec. Sci., 2018 8(1)1-6
     doi.org/10.1002/wcms.1327
  6. Neese,F.; Wennmohs,F.; Becker,U.; Riplinger,C.
     The ORCA quantum chemistry program package
     J. Chem. Phys., 2020 152 Art. No. L224108
     doi.org/10.1063/5.0004608
  7. Bistoni,G.
     Finding chemical concepts in the Hilbert space: Coupled cluster analyses of noncovalent interactions
     WIRES Comput. Molec. Sci., 2020 10(3)e1442
     doi.org/10.1002/wcms.1442

List of optional additional citations

  1. Neese,F.
     Approximate second-order SCF convergence for spin unrestricted wavefunctions
     Chem. Phys. Lett., 2000 325(1-3)93-98
     doi.org/10.1016/s0009-2614(00)00662-x

Timings for individual modules:

Sum of individual times          ...    80376.998 sec (=1339.617 min)
GTO integral calculation         ...      920.650 sec (=  15.344 min)   1.1 %
SCF iterations                   ...    17093.414 sec (= 284.890 min)  21.3 %
Property integrals               ...       78.265 sec (=   1.304 min)   0.1 %
MDCI module                      ...    62284.668 sec (=1038.078 min)  77.5 %
                             ****ORCA TERMINATED NORMALLY****
TOTAL RUN TIME: 0 days 22 hours 19 minutes 43 seconds 641 msec