                                 *****************
                                 * O   R   C   A *
                                 *****************

                                            #,                                       
                                            ###                                      
                                            ####                                     
                                            #####                                    
                                            ######                                   
                                           ########,                                 
                                     ,,################,,,,,                         
                               ,,#################################,,                 
                          ,,##########################################,,             
                       ,#########################################, ''#####,          
                    ,#############################################,,   '####,        
                  ,##################################################,,,,####,       
                ,###########''''           ''''###############################       
              ,#####''   ,,,,##########,,,,          '''####'''          '####       
            ,##' ,,,,###########################,,,                        '##       
           ' ,,###''''                  '''############,,,                           
         ,,##''                                '''############,,,,        ,,,,,,###''
      ,#''                                            '''#######################'''  
     '                                                          ''''####''''         
             ,#######,   #######,   ,#######,      ##                                
            ,#'     '#,  ##    ##  ,#'     '#,    #''#        ######   ,####,        
            ##       ##  ##   ,#'  ##            #'  '#       #        #'  '#        
            ##       ##  #######   ##           ,######,      #####,   #    #        
            '#,     ,#'  ##    ##  '#,     ,#' ,#      #,         ##   #,  ,#        
             '#######'   ##     ##  '#######'  #'      '#     #####' # '####'        



                  #######################################################
                  #                        -***-                        #
                  #          Department of theory and spectroscopy      #
                  #    Directorship and core code : Frank Neese         #
                  #        Max Planck Institute fuer Kohlenforschung    #
                  #                Kaiser Wilhelm Platz 1               #
                  #                 D-45470 Muelheim/Ruhr               #
                  #                      Germany                        #
                  #                                                     #
                  #                  All rights reserved                #
                  #                        -***-                        #
                  #######################################################


                         Program Version 5.0  -  CURRENT   -
                                (GIT: $76ccee9ca$)
                ($2022-06-14 15:14:42 +0200 $)

                  !                     WARNING:                         !
                  !         This is a DEVELOPMENT version                !

                         (BUILD: $Mi 15. Jun 00:07:41 CEST 2022$)


 With contributions from (in alphabetic order):
   Daniel Aravena         : Magnetic Suceptibility
   Michael Atanasov       : Ab Initio Ligand Field Theory (pilot matlab implementation)
   Alexander A. Auer      : GIAO ZORA, VPT2 properties, NMR spectrum
   Ute Becker             : Parallelization
   Giovanni Bistoni       : ED, misc. LED, open-shell LED, HFLD
   Martin Brehm           : Molecular dynamics
   Dmytro Bykov           : SCF Hessian
   Vijay G. Chilkuri      : MRCI spin determinant printing, contributions to CSF-ICE
   Dipayan Datta          : RHF DLPNO-CCSD density
   Achintya Kumar Dutta   : EOM-CC, STEOM-CC
   Dmitry Ganyushin       : Spin-Orbit,Spin-Spin,Magnetic field MRCI
   Miquel Garcia          : C-PCM and meta-GGA Hessian, CC/C-PCM, Gaussian charge scheme
   Yang Guo               : DLPNO-NEVPT2, F12-NEVPT2, CIM, IAO-localization
   Andreas Hansen         : Spin unrestricted coupled pair/coupled cluster methods
   Benjamin Helmich-Paris : MC-RPA, TRAH-SCF, COSX integrals
   Lee Huntington         : MR-EOM, pCC
   Robert Izsak           : Overlap fitted RIJCOSX, COSX-SCS-MP3, EOM
   Marcus Kettner         : VPT2
   Christian Kollmar      : KDIIS, OOCD, Brueckner-CCSD(T), CCSD density, CASPT2, CASPT2-K, improved NEVPT2
   Simone Kossmann        : Meta GGA functionals, TD-DFT gradient, OOMP2, MP2 Hessian
   Martin Krupicka        : Initial AUTO-CI
   Lucas Lang             : DCDCAS
   Marvin Lechner         : AUTO-CI (C++ implementation), FIC-MRCC
   Dagmar Lenk            : GEPOL surface, SMD
   Dimitrios Liakos       : Extrapolation schemes; Compound Job, initial MDCI parallelization
   Dimitrios Manganas     : Further ROCIS development; embedding schemes
   Dimitrios Pantazis     : SARC Basis sets
   Anastasios Papadopoulos: AUTO-CI, single reference methods and gradients
   Taras Petrenko         : DFT Hessian,TD-DFT gradient, ASA, ECA, R-Raman, ABS, FL, XAS/XES, NRVS
   Peter Pinski           : DLPNO-MP2, DLPNO-MP2 Gradient
   Christoph Reimann      : Effective Core Potentials
   Marius Retegan         : Local ZFS, SOC
   Christoph Riplinger    : Optimizer, TS searches, QM/MM, DLPNO-CCSD(T), (RO)-DLPNO pert. Triples
   Tobias Risthaus        : Range-separated hybrids, TD-DFT gradient, RPA, STAB
   Michael Roemelt        : Original ROCIS implementation
   Masaaki Saitow         : Open-shell DLPNO-CCSD energy and density
   Barbara Sandhoefer     : DKH picture change effects
   Avijit Sen             : IP-ROCIS
   Kantharuban Sivalingam : CASSCF convergence, NEVPT2, FIC-MRCI
   Bernardo de Souza      : ESD, SOC TD-DFT
   Georgi Stoychev        : AutoAux, RI-MP2 NMR, DLPNO-MP2 response
   Willem Van den Heuvel  : Paramagnetic NMR
   Boris Wezisla          : Elementary symmetry handling
   Frank Wennmohs         : Technical directorship


 We gratefully acknowledge several colleagues who have allowed us to
 interface, adapt or use parts of their codes:
   Stefan Grimme, W. Hujo, H. Kruse, P. Pracht,  : VdW corrections, initial TS optimization,
                  C. Bannwarth, S. Ehlert          DFT functionals, gCP, sTDA/sTD-DF
   Ed Valeev, F. Pavosevic, A. Kumar             : LibInt (2-el integral package), F12 methods
   Garnet Chan, S. Sharma, J. Yang, R. Olivares  : DMRG
   Ulf Ekstrom                                   : XCFun DFT Library
   Mihaly Kallay                                 : mrcc  (arbitrary order and MRCC methods)
   Jiri Pittner, Ondrej Demel                    : Mk-CCSD
   Frank Weinhold                                : gennbo (NPA and NBO analysis)
   Christopher J. Cramer and Donald G. Truhlar   : smd solvation model
   Lars Goerigk                                  : TD-DFT with DH, B97 family of functionals
   V. Asgeirsson, H. Jonsson                     : NEB implementation
   FAccTs GmbH                                   : IRC, NEB, NEB-TS, DLPNO-Multilevel, CI-OPT
                                                   MM, QMMM, 2- and 3-layer-ONIOM, Crystal-QMMM,
                                                   LR-CPCM, SF, NACMEs, symmetry and pop. for TD-DFT,
                                                   nearIR, NL-DFT gradient (VV10), updates on ESD,
                                                   ML-optimized integration grids
   S Lehtola, MJT Oliveira, MAL Marques          : LibXC Library
   Liviu Ungur et al                             : ANISO software


 Your calculation uses the libint2 library for the computation of 2-el integrals
 For citations please refer to: http://libint.valeyev.net

 Your ORCA version has been built with support for libXC version: 5.2.2
 For citations please refer to: https://tddft.org/programs/libxc/

 This ORCA versions uses:
   CBLAS   interface :  Fast vector & matrix operations
   LAPACKE interface :  Fast linear algebra routines
   SCALAPACK package :  Parallel linear algebra routines
   Shared memory     :  Shared parallel matrices


================================================================================

----- Orbital basis set information -----
Your calculation utilizes the basis: aug-cc-pVQZ 
    H, B-Ne : Obtained from the ccRepo (grant-hill.group.shef.ac.uk/ccrepo) Feb. 2017
              R. A. Kendall, T. H. Dunning, Jr., R. J. Harrison, J. Chem. Phys. 96, 6796 (1992)
         He : Obtained from the ccRepo (grant-hill.group.shef.ac.uk/ccrepo) Feb. 2017
              D. E. Woon, T. H. Dunning, Jr., J. Chem. Phys. 100, 2975 (1994)
  Li-Be, Na : Obtained from the ccRepo (grant-hill.group.shef.ac.uk/ccrepo) Feb. 2017
              B. P. Prascher, D. E. Woon, K. A. Peterson, T. H. Dunning, Jr., A. K. Wilson, Theor. Chem. Acc. 128, 69 (2011)
         Mg : Obtained from the Peterson Research Group Website (tyr0.chem.wsu.edu/~kipeters) Feb. 2017
              B. P. Prascher, D. E. Woon, K. A. Peterson, T. H. Dunning, Jr., A. K. Wilson, Theor. Chem. Acc. 128, 69 (2011)
      Al-Ar : Obtained from the ccRepo (grant-hill.group.shef.ac.uk/ccrepo) Feb. 2017
              D. E. Woon, T. H. Dunning, Jr., J. Chem. Phys. 98, 1358 (1993)
      Sc-Zn : Obtained from the ccRepo (grant-hill.group.shef.ac.uk/ccrepo) Feb. 2017
              N. B. Balabanov, K. A. Peterson, J. Chem. Phys. 123, 064107 (2005)
              N. B. Balabanov, K. A. Peterson, J. Chem. Phys. 125, 074110 (2006)
      Ga-Kr : Obtained from the ccRepo (grant-hill.group.shef.ac.uk/ccrepo) Feb. 2017
              A. K. Wilson, D. E. Woon, K. A. Peterson, T. H. Dunning, Jr., J. Chem. Phys. 110, 7667 (1999)

----- AuxJ basis set information -----
----- AuxC basis set information -----
================================================================================
                                        WARNINGS
                       Please study these warnings very carefully!
================================================================================


WARNING: Post HF methods need fully converged wavefunctions
  ===> : Setting SCFConvForced true
         You can overwrite this default with %scf ConvForced false 


WARNING: MDCI localization with Augmented Hessian Foster-Boys
  ===> : Switching off randomization!

INFO   : the flag for use of the SHARK integral package has been found!

================================================================================
                                       INPUT FILE
================================================================================
NAME = frag65.inp
|  1> ! DLPNO-CCSD(T1) aug-cc-pVQZ DEFGRID3 RIJCOSX def2/J aug-cc-pV5Z/C verytightscf TightPNO LED
|  2> 
|  3> %pal nprocs 16 end
|  4> %maxcore 6000
|  5> %scf maxiter 999 end
|  6> %basis auxj "autoaux" auxc "autoaux" autoauxlmax true end
|  7> %mdci TCutPNO 1e-6 printlevel 3 end
|  8> 
|  9> * xyz 0 1
| 10> O(1)     1.597560181     2.978636709    -1.236245995
| 11> H(1)     1.417961949     3.808511891    -0.786488687
| 12> H(1)     0.711446199     2.593888593    -1.420550970
| 13> O(2)    -0.845377446     1.902266646    -1.724481185
| 14> H(2)    -1.198971324     1.335278306    -1.003913817
| 15> H(2)    -0.953209570     1.388839038    -2.529056860
| 16> *
| 17> 
| 18>                          ****END OF INPUT****
================================================================================

                       ****************************
                       * Single Point Calculation *
                       ****************************

---------------------------------
CARTESIAN COORDINATES (ANGSTROEM)
---------------------------------
  O      1.597560    2.978637   -1.236246
  H      1.417962    3.808512   -0.786489
  H      0.711446    2.593889   -1.420551
  O     -0.845377    1.902267   -1.724481
  H     -1.198971    1.335278   -1.003914
  H     -0.953210    1.388839   -2.529057

----------------------------
CARTESIAN COORDINATES (A.U.)
----------------------------
  NO LB      ZA    FRAG     MASS         X           Y           Z
   0 O     8.0000    1    15.999    3.018951    5.628808   -2.336166
   1 H     1.0000    1     1.008    2.679560    7.197044   -1.486248
   2 H     1.0000    1     1.008    1.344438    4.901739   -2.684452
   3 O     8.0000    2    15.999   -1.597532    3.594763   -3.258797
   4 H     1.0000    2     1.008   -2.265727    2.523310   -1.897122
   5 H     1.0000    2     1.008   -1.801305    2.624525   -4.779225

----------------------------------------------
CARTESIAN COORDINATES OF FRAGMENTS (ANGSTROEM)
----------------------------------------------

 FRAGMENT 1 
  O     1.597560    2.978637   -1.236246
  H     1.417962    3.808512   -0.786489
  H     0.711446    2.593889   -1.420551

 FRAGMENT 2 
  O    -0.845377    1.902267   -1.724481
  H    -1.198971    1.335278   -1.003914
  H    -0.953210    1.388839   -2.529057

--------------------------------
INTERNAL COORDINATES (ANGSTROEM)
--------------------------------
 O      0   0   0     0.000000000000     0.00000000     0.00000000
 H      1   0   0     0.960848572220     0.00000000     0.00000000
 H      1   2   0     0.983461959443   104.90384132     0.00000000
 O      3   1   2     1.730437619446   179.16601268   261.49753043
 H      4   3   1     0.982711422586   115.18421799     9.75552367
 H      4   3   1     0.960509079824   117.50137604   244.62483787

---------------------------
INTERNAL COORDINATES (A.U.)
---------------------------
 O      0   0   0     0.000000000000     0.00000000     0.00000000
 H      1   0   0     1.815740657664     0.00000000     0.00000000
 H      1   2   0     1.858473766477   104.90384132     0.00000000
 O      3   1   2     3.270053192587   179.16601268   261.49753043
 H      4   3   1     1.857055457364   115.18421799     9.75552367
 H      4   3   1     1.815099110012   117.50137604   244.62483787

---------------------
BASIS SET INFORMATION
---------------------
There are 2 groups of distinct atoms

 Group   1 Type O   : 22s7p4d3f2g contracted to 6s5p4d3f2g pattern {991111/31111/1111/111/11}
 Group   2 Type H   : 7s4p3d2f contracted to 5s4p3d2f pattern {31111/1111/111/11}

Atom   0O    basis set group =>   1
Atom   1H    basis set group =>   2
Atom   2H    basis set group =>   2
Atom   3O    basis set group =>   1
Atom   4H    basis set group =>   2
Atom   5H    basis set group =>   2
---------------------------------
AUXILIARY/J BASIS SET INFORMATION
---------------------------------
There are 2 groups of distinct atoms

 Group   1 Type O   : 16s14p13d7f7g5h3i3j contracted to 16s14p13d7f7g5h3i3j pattern {1111111111111111/11111111111111/1111111111111/1111111/1111111/11111/111/111}
 Group   2 Type H   : 15s7p6d5f5g4h3i contracted to 15s7p6d5f5g4h3i pattern {111111111111111/1111111/111111/11111/11111/1111/111}

Atom   0O    basis set group =>   1
Atom   1H    basis set group =>   2
Atom   2H    basis set group =>   2
Atom   3O    basis set group =>   1
Atom   4H    basis set group =>   2
Atom   5H    basis set group =>   2
---------------------------------
AUXILIARY/C BASIS SET INFORMATION
---------------------------------
There are 2 groups of distinct atoms

 Group   1 Type O   : 16s14p13d7f7g5h3i3j contracted to 16s14p13d7f7g5h3i3j pattern {1111111111111111/11111111111111/1111111111111/1111111/1111111/11111/111/111}
 Group   2 Type H   : 15s7p6d5f5g4h3i contracted to 15s7p6d5f5g4h3i pattern {111111111111111/1111111/111111/11111/11111/1111/111}

Atom   0O    basis set group =>   1
Atom   1H    basis set group =>   2
Atom   2H    basis set group =>   2
Atom   3O    basis set group =>   1
Atom   4H    basis set group =>   2
Atom   5H    basis set group =>   2

Checking for AutoStart:
The File: frag65.gbw exists
Trying to determine its content:
     ... Fine, the file contains calculation information
     ... Fine, the calculation information was read
     ... Fine, the file contains a basis set
     ... Fine, the basis set was read
     ... Fine, the file contains a geometry
     ... Fine, the geometry was read
     ... Fine, the file contains a set of orbitals
     ... Fine, the orbitals can be read
     => possible old guess file was deleted
     => GBW file was renamed to GES file
     => GES file is set as startup file
     => Guess is set to MORead
     ... now leaving AutoStart



           ************************************************************
           *        Program running with 16 parallel MPI-processes    *
           *              working on a common directory               *
           ************************************************************
------------------------------------------------------------------------------
                           ORCA GTO INTEGRAL CALCULATION
                           -- RI-GTO INTEGRALS CHOSEN --
------------------------------------------------------------------------------
------------------------------------------------------------------------------
                   ___                                                        
                  /   \      - P O W E R E D   B Y -                         
                 /     \                                                     
                 |  |  |   _    _      __       _____    __    __             
                 |  |  |  | |  | |    /  \     |  _  \  |  |  /  |          
                  \  \/   | |  | |   /    \    | | | |  |  | /  /          
                 / \  \   | |__| |  /  /\  \   | |_| |  |  |/  /          
                |  |  |   |  __  | /  /__\  \  |    /   |      \           
                |  |  |   | |  | | |   __   |  |    \   |  |\   \          
                \     /   | |  | | |  |  |  |  | |\  \  |  | \   \       
                 \___/    |_|  |_| |__|  |__|  |_| \__\ |__|  \__/        
                                                                              
                      - O R C A' S   B I G   F R I E N D -                    
                                      &                                       
                       - I N T E G R A L  F E E D E R -                       
                                                                              
 v1 FN, 2020, v2 2021                                                         
------------------------------------------------------------------------------


Reading SHARK input file frag65.SHARKINP.tmp ... ok
Calculating pre-screening integrals         ... done (  0.0 sec) Dimension = 110
Calculating pre-screening integrals (ORCA)  ... done (  0.1 sec) Dimension = 96
Organizing shell pair data                  ... done (  0.1 sec)
Shell pair information
Total number of shell pairs                 ...      6105
Shell pairs after pre-screening             ...      5716
Total number of primitive shell pairs       ...      7521
Primitive shell pairs kept                  ...      6772
          la=0 lb=0:    938 shell pairs
          la=1 lb=0:   1120 shell pairs
          la=1 lb=1:    345 shell pairs
          la=2 lb=0:    860 shell pairs
          la=2 lb=1:    508 shell pairs
          la=2 lb=2:    204 shell pairs
          la=3 lb=0:    593 shell pairs
          la=3 lb=1:    353 shell pairs
          la=3 lb=2:    274 shell pairs
          la=3 lb=3:    105 shell pairs
          la=4 lb=0:    166 shell pairs
          la=4 lb=1:    104 shell pairs
          la=4 lb=2:     80 shell pairs
          la=4 lb=3:     56 shell pairs
          la=4 lb=4:     10 shell pairs

Calculating one electron integrals          ... done (  0.0 sec)
Calculating RI/J V-Matrix + Cholesky decomp.... done (  0.6 sec)
Calculating RI/C V-Matrix + Cholesky decomp.... done (  0.6 sec)
Calculating Nuclear repulsion               ... done (  0.0 sec) ENN=     37.736703770511 Eh

SHARK setup successfully completed in   1.6 seconds

Maximum memory used throughout the entire GTOINT-calculation: 94.4 MB


           ************************************************************
           *        Program running with 16 parallel MPI-processes    *
           *              working on a common directory               *
           ************************************************************
-------------------------------------------------------------------------------
                                 ORCA SCF
-------------------------------------------------------------------------------

------------
SCF SETTINGS
------------
Hamiltonian:
 Ab initio Hamiltonian  Method          .... Hartree-Fock(GTOs)
 RI-approximation to the Coulomb term is turned on
   Number of AuxJ basis functions       .... 1664
   RIJ-COSX (HFX calculated with COS-X)).... on


General Settings:
 Integral files         IntName         .... frag65
 Hartree-Fock type      HFTyp           .... RHF
 Total Charge           Charge          ....    0
 Multiplicity           Mult            ....    1
 Number of Electrons    NEL             ....   20
 Basis Dimension        Dim             ....  344
 Nuclear Repulsion      ENuc            ....     37.7367037705 Eh

Convergence Acceleration:
 DIIS                   CNVDIIS         .... on
   Start iteration      DIISMaxIt       ....    12
   Startup error        DIISStart       ....  0.200000
   # of expansion vecs  DIISMaxEq       ....     5
   Bias factor          DIISBfac        ....   1.050
   Max. coefficient     DIISMaxC        ....  10.000
 Trust-Rad. Augm. Hess. CNVTRAH         .... auto
   Auto Start mean grad. ratio tolernc. ....  1.125000
   Auto Start start iteration           ....     1
   Auto Start num. interpolation iter.  ....    10
   Max. Number of Micro iterations      ....    24
   Max. Number of Macro iterations      .... Maxiter - #DIIS iter
   Max. Number of back steps            ....     5
   Number of Davidson start vectors     ....     2
   Converg. threshold I  (grad. norm)   ....   2.000e-06
   Converg. threshold II (energy diff.) ....   1.000e-09
   Grad. Scal. Fac. for Micro threshold ....   0.100
   Minimum threshold for Micro iter.    ....   1.000e-02
   NR start threshold (gradient norm)   ....   1.000e-04
   Initial trust radius                 ....   0.400
   Minimum AH scaling param. (alpha)    ....   1.000
   Maximum AH scaling param. (alpha)    .... 1000.000
   Inactive MOs                         .... canonicalized
   Orbital update algorithm             .... Taylor
   White noise on init. David. guess    .... on
   Maximum white noise                  ....   0.010
   Quad. conv. algorithm                .... NR
   Preconditioner                       .... approx. diagonal
 SOSCF                  CNVSOSCF        .... on
   Start iteration      SOSCFMaxIt      ....   150
   Startup grad/error   SOSCFStart      ....  0.003300
 Level Shifting         CNVShift        .... on
   Level shift para.    LevelShift      ....    0.2500
   Turn off err/grad.   ShiftErr        ....    0.0010
 Zerner damping         CNVZerner       .... off
 Static damping         CNVDamp         .... on
   Fraction old density DampFac         ....    0.7000
   Max. Damping (<1)    DampMax         ....    0.9800
   Min. Damping (>=0)   DampMin         ....    0.0000
   Turn off err/grad.   DampErr         ....    0.1000

SCF Procedure:
 Maximum # iterations   MaxIter         ....   999
 SCF integral mode      SCFMode         .... Direct
   Integral package                     .... SHARK and LIBINT hybrid scheme
 Reset frequency        DirectResetFreq ....    20
 Integral Threshold     Thresh          ....  1.000e-12 Eh
 Primitive CutOff       TCut            ....  1.000e-14 Eh

Convergence Tolerance:
 Convergence Check Mode ConvCheckMode   .... Total+1el-Energy
 Convergence forced     ConvForced      .... 1
 Energy Change          TolE            ....  1.000e-09 Eh
 1-El. energy change                    ....  1.000e-06 Eh
 Orbital Gradient       TolG            ....  2.000e-06
 Orbital Rotation angle TolX            ....  2.000e-06
 DIIS Error             TolErr          ....  1.000e-08


Diagonalization of the overlap matrix:
Smallest eigenvalue                        ... 3.959e-05
Time for diagonalization                   ...    0.016 sec
Threshold for overlap eigenvalues          ... 1.000e-08
Number of eigenvalues below threshold      ... 0
Time for construction of square roots      ...    0.011 sec
Total time needed                          ...    0.028 sec

---------------------
INITIAL GUESS: MOREAD
---------------------
Guess MOs are being read from file: frag65.ges
Input Geometry matches current geometry (good)
Atom 0: N(Shells)= 20 and 14 - projection required
Input basis set needs projection
NBasis(read)= 184
NBasis(calc)= 344
Basis set overlap was calculated
Using GuessMode=FMatrix for the initial guess
C*T matrix was formed
Effective Fockian was calculated
Effective Fockian was diagonalized
Initial density was built
                      ------------------
                      INITIAL GUESS DONE (   0.0 sec)
                      ------------------
--------------------
COSX GRID GENERATION
--------------------

GRIDX 1
-------
General Integration Accuracy     IntAcc      ... 4.020
Radial Grid Type                 RadialGrid  ... OptM3 with GC (2021)
Angular Grid (max. ang.)         AngularGrid ... 2 (Lebedev-110)
Angular grid pruning method      GridPruning ... 4 (adaptive)
Weight generation scheme         WeightScheme... Becke
Basis function cutoff            BFCut       ... 1.0000e-12
Integration weight cutoff        WCut        ... 1.0000e-14
Angular grids for H and He will be reduced by one unit
Partially contracted basis set               ... on
Rotationally invariant grid construction     ... off

Total number of grid points                  ...     8207
Total number of batches                      ...      131
Average number of points per batch           ...       62
Average number of grid points per atom       ...     1368
UseSFitting                                  ... on

GRIDX 2
-------
General Integration Accuracy     IntAcc      ... 4.338
Radial Grid Type                 RadialGrid  ... OptM3 with GC (2021)
Angular Grid (max. ang.)         AngularGrid ... 3 (Lebedev-194)
Angular grid pruning method      GridPruning ... 4 (adaptive)
Weight generation scheme         WeightScheme... Becke
Basis function cutoff            BFCut       ... 1.0000e-12
Integration weight cutoff        WCut        ... 1.0000e-14
Angular grids for H and He will be reduced by one unit
Partially contracted basis set               ... on
Rotationally invariant grid construction     ... off

Total number of grid points                  ...    18715
Total number of batches                      ...      295
Average number of points per batch           ...       63
Average number of grid points per atom       ...     3119
UseSFitting                                  ... on

GRIDX 3
-------
General Integration Accuracy     IntAcc      ... 4.871
Radial Grid Type                 RadialGrid  ... OptM3 with GC (2021)
Angular Grid (max. ang.)         AngularGrid ... 4 (Lebedev-302)
Angular grid pruning method      GridPruning ... 4 (adaptive)
Weight generation scheme         WeightScheme... Becke
Basis function cutoff            BFCut       ... 1.0000e-12
Integration weight cutoff        WCut        ... 1.0000e-14
Angular grids for H and He will be reduced by one unit
Partially contracted basis set               ... on
Rotationally invariant grid construction     ... off

Total number of grid points                  ...    36538
Total number of batches                      ...      573
Average number of points per batch           ...       63
Average number of grid points per atom       ...     6090
UseSFitting                                  ... on

Time for X-Grid setup             =    0.330 sec

 re-compute Schwartz prescreening matrix in partially contracted basis (1) ...done (   0.081 sec)
--------------
SCF ITERATIONS
--------------
ITER       Energy         Delta-E        Max-DP      RMS-DP      [F,P]     Damp
               ***  Starting incremental Fock matrix formation  ***
  0   -152.1311066264   0.000000000000 0.02484492  0.00031129  0.0170396 0.7000
                      *** Initiating the SOSCF procedure ***
                      *** Re-Reading the Fockian *** 
                      *** Removing any level shift *** 
ITER       Energy         Delta-E        Max-DP      RMS-DP   
  1   -152.1314877805  -0.000381154158 0.06639872  0.00080109
               *** Restarting incremental Fock matrix formation ***
  2   -152.1323889864  -0.000901205907 0.01126354  0.00012470
  3   -152.1323940679  -0.000005081479 0.00225874  0.00002304
  4   -152.1323939536   0.000000114275 0.00037953  0.00000491
  5   -152.1323941702  -0.000000216597 0.00001382  0.00000028
  6   -152.1323941734  -0.000000003167 0.00000519  0.00000010
  7   -152.1323941722   0.000000001166 0.00000212  0.00000003
                 **** Energy Check signals convergence ****
              ***Rediagonalizing the Fockian in SOSCF/NRSCF***

               *****************************************************
               *                     SUCCESS                       *
               *           SCF CONVERGED AFTER   8 CYCLES          *
               *****************************************************

Old exchange energy                            =    -17.885380058 Eh
New exchange energy                            =    -17.885416237 Eh
Exchange energy change after final integration =     -0.000036179 Eh
Total energy after final integration           =   -152.132430351 Eh
Final COS-X integration done in                =     1.549 sec

----------------
TOTAL SCF ENERGY
----------------

Total Energy       :         -152.13243035 Eh           -4139.73389 eV

Components:
Nuclear Repulsion  :           37.73670377 Eh            1026.86791 eV
Electronic Energy  :         -189.86913412 Eh           -5166.60180 eV
One Electron Energy:         -284.91453257 Eh           -7752.91858 eV
Two Electron Energy:           95.04539845 Eh            2586.31678 eV
Max COSX asymmetry :            0.00000050 Eh               0.00001 eV

Virial components:
Potential Energy   :         -304.07131102 Eh           -8274.20103 eV
Kinetic Energy     :          151.93888067 Eh            4134.46714 eV
Virial Ratio       :            2.00127387


---------------
SCF CONVERGENCE
---------------

  Last Energy change         ...    3.0181e-10  Tolerance :   1.0000e-09
  Last MAX-Density change    ...    1.7764e-15  Tolerance :   1.0000e-08
  Last RMS-Density change    ...    7.2248e-18  Tolerance :   1.0000e-09

             **** THE GBW FILE WAS UPDATED (frag65.gbw) ****
             **** DENSITY frag65.scfp WAS UPDATED ****
             **** ENERGY FILE WAS UPDATED (frag65.en.tmp) ****
             **** THE GBW FILE WAS UPDATED (frag65.gbw) ****
             **** DENSITY frag65.scfp WAS UPDATED ****
             **** ENERGY FILE WAS UPDATED (frag65.en.tmp) ****
----------------
ORBITAL ENERGIES
----------------

  NO   OCC          E(Eh)            E(eV) 
   0   2.0000     -20.598582      -560.5159 
   1   2.0000     -20.521844      -558.4278 
   2   2.0000      -1.382672       -37.6244 
   3   2.0000      -1.305614       -35.5276 
   4   2.0000      -0.745524       -20.2867 
   5   2.0000      -0.693040       -18.8586 
   6   2.0000      -0.615813       -16.7571 
   7   2.0000      -0.554149       -15.0792 
   8   2.0000      -0.525124       -14.2893 
   9   2.0000      -0.469471       -12.7750 
  10   0.0000       0.017965         0.4889 
  11   0.0000       0.039089         1.0637 
  12   0.0000       0.045153         1.2287 
  13   0.0000       0.068279         1.8580 
  14   0.0000       0.102464         2.7882 
  15   0.0000       0.118963         3.2372 
  16   0.0000       0.135993         3.7006 
  17   0.0000       0.144875         3.9422 
  18   0.0000       0.149477         4.0675 
  19   0.0000       0.164334         4.4718 
  20   0.0000       0.176857         4.8125 
  21   0.0000       0.180509         4.9119 
  22   0.0000       0.199085         5.4174 
  23   0.0000       0.206261         5.6126 
  24   0.0000       0.222935         6.0664 
  25   0.0000       0.235928         6.4199 
  26   0.0000       0.247511         6.7351 
  27   0.0000       0.254826         6.9342 
  28   0.0000       0.292734         7.9657 
  29   0.0000       0.305094         8.3020 
  30   0.0000       0.312760         8.5106 
  31   0.0000       0.341281         9.2867 
  32   0.0000       0.351926         9.5764 
  33   0.0000       0.366479         9.9724 
  34   0.0000       0.372756        10.1432 
  35   0.0000       0.375950        10.2301 
  36   0.0000       0.427280        11.6269 
  37   0.0000       0.467580        12.7235 
  38   0.0000       0.477228        12.9860 
  39   0.0000       0.491196        13.3661 
  40   0.0000       0.520030        14.1507 
  41   0.0000       0.534504        14.5446 
  42   0.0000       0.552308        15.0291 
  43   0.0000       0.563570        15.3355 
  44   0.0000       0.575922        15.6716 
  45   0.0000       0.590980        16.0814 
  46   0.0000       0.600131        16.3304 
  47   0.0000       0.606117        16.4933 
  48   0.0000       0.623668        16.9709 
  49   0.0000       0.650067        17.6892 
  50   0.0000       0.662217        18.0198 
  51   0.0000       0.677828        18.4446 
  52   0.0000       0.687525        18.7085 
  53   0.0000       0.694874        18.9085 
  54   0.0000       0.719635        19.5823 
  55   0.0000       0.723694        19.6927 
  56   0.0000       0.732656        19.9366 
  57   0.0000       0.754739        20.5375 
  58   0.0000       0.761014        20.7083 
  59   0.0000       0.767187        20.8762 
  60   0.0000       0.780282        21.2325 
  61   0.0000       0.784744        21.3540 
  62   0.0000       0.800028        21.7699 
  63   0.0000       0.811625        22.0854 
  64   0.0000       0.823736        22.4150 
  65   0.0000       0.832066        22.6417 
  66   0.0000       0.853657        23.2292 
  67   0.0000       0.881584        23.9891 
  68   0.0000       0.903375        24.5821 
  69   0.0000       0.944422        25.6990 
  70   0.0000       0.967505        26.3271 
  71   0.0000       0.976881        26.5823 
  72   0.0000       0.981096        26.6970 
  73   0.0000       1.018799        27.7229 
  74   0.0000       1.081623        29.4325 
  75   0.0000       1.125639        30.6302 
  76   0.0000       1.156154        31.4605 
  77   0.0000       1.161361        31.6022 
  78   0.0000       1.184166        32.2228 
  79   0.0000       1.212736        33.0002 
  80   0.0000       1.234003        33.5789 
  81   0.0000       1.272842        34.6358 
  82   0.0000       1.284135        34.9431 
  83   0.0000       1.318498        35.8782 
  84   0.0000       1.346888        36.6507 
  85   0.0000       1.412491        38.4358 
  86   0.0000       1.426082        38.8057 
  87   0.0000       1.455832        39.6152 
  88   0.0000       1.471389        40.0385 
  89   0.0000       1.520091        41.3638 
  90   0.0000       1.543568        42.0026 
  91   0.0000       1.554279        42.2941 
  92   0.0000       1.572955        42.8023 
  93   0.0000       1.579263        42.9739 
  94   0.0000       1.606598        43.7178 
  95   0.0000       1.611891        43.8618 
  96   0.0000       1.621279        44.1172 
  97   0.0000       1.647332        44.8262 
  98   0.0000       1.661732        45.2180 
  99   0.0000       1.683774        45.8178 
 100   0.0000       1.691735        46.0345 
 101   0.0000       1.697252        46.1846 
 102   0.0000       1.714379        46.6506 
 103   0.0000       1.733697        47.1763 
 104   0.0000       1.739229        47.3268 
 105   0.0000       1.758736        47.8577 
 106   0.0000       1.766339        48.0645 
 107   0.0000       1.783160        48.5223 
 108   0.0000       1.791180        48.7405 
 109   0.0000       1.800531        48.9949 
 110   0.0000       1.818569        49.4858 
 111   0.0000       1.828142        49.7463 
 112   0.0000       1.847330        50.2684 
 113   0.0000       1.865132        50.7528 
 114   0.0000       1.876063        51.0503 
 115   0.0000       1.900308        51.7100 
 116   0.0000       1.906430        51.8766 
 117   0.0000       1.931834        52.5679 
 118   0.0000       1.936979        52.7079 
 119   0.0000       1.945383        52.9366 
 120   0.0000       1.957503        53.2664 
 121   0.0000       1.969185        53.5843 
 122   0.0000       1.991085        54.1802 
 123   0.0000       2.000621        54.4397 
 124   0.0000       2.040784        55.5326 
 125   0.0000       2.077983        56.5448 
 126   0.0000       2.082776        56.6752 
 127   0.0000       2.117643        57.6240 
 128   0.0000       2.160738        58.7967 
 129   0.0000       2.170104        59.0515 
 130   0.0000       2.189256        59.5727 
 131   0.0000       2.225129        60.5488 
 132   0.0000       2.248224        61.1773 
 133   0.0000       2.267089        61.6906 
 134   0.0000       2.300380        62.5965 
 135   0.0000       2.345925        63.8359 
 136   0.0000       2.366889        64.4063 
 137   0.0000       2.405835        65.4661 
 138   0.0000       2.410881        65.6034 
 139   0.0000       2.434537        66.2471 
 140   0.0000       2.444345        66.5140 
 141   0.0000       2.499057        68.0028 
 142   0.0000       2.582131        70.2634 
 143   0.0000       2.621250        71.3278 
 144   0.0000       2.696727        73.3817 
 145   0.0000       2.774809        75.5064 
 146   0.0000       2.808336        76.4187 
 147   0.0000       2.869628        78.0866 
 148   0.0000       2.912850        79.2627 
 149   0.0000       2.966104        80.7118 
 150   0.0000       2.997831        81.5751 
 151   0.0000       3.045442        82.8707 
 152   0.0000       3.066274        83.4376 
 153   0.0000       3.074800        83.6696 
 154   0.0000       3.101940        84.4081 
 155   0.0000       3.116052        84.7921 
 156   0.0000       3.141648        85.4886 
 157   0.0000       3.172903        86.3391 
 158   0.0000       3.220416        87.6320 
 159   0.0000       3.264957        88.8440 
 160   0.0000       3.290139        89.5292 
 161   0.0000       3.306941        89.9864 
 162   0.0000       3.342784        90.9618 
 163   0.0000       3.418966        93.0348 
 164   0.0000       3.438809        93.5747 
 165   0.0000       3.499687        95.2313 
 166   0.0000       3.556413        96.7749 
 167   0.0000       3.588910        97.6592 
 168   0.0000       3.604313        98.0783 
 169   0.0000       3.616305        98.4047 
 170   0.0000       3.672126        99.9236 
 171   0.0000       3.717549       101.1597 
 172   0.0000       3.725526       101.3767 
 173   0.0000       3.773741       102.6887 
 174   0.0000       3.781355       102.8959 
 175   0.0000       3.844761       104.6213 
 176   0.0000       3.864916       105.1697 
 177   0.0000       3.878821       105.5481 
 178   0.0000       3.926576       106.8476 
 179   0.0000       3.973839       108.1337 
 180   0.0000       4.055304       110.3504 
 181   0.0000       4.085360       111.1683 
 182   0.0000       4.165569       113.3509 
 183   0.0000       4.203686       114.3881 
 184   0.0000       4.235500       115.2538 
 185   0.0000       4.250404       115.6594 
 186   0.0000       4.304196       117.1231 
 187   0.0000       4.328825       117.7933 
 188   0.0000       4.330774       117.8463 
 189   0.0000       4.353395       118.4619 
 190   0.0000       4.382414       119.2515 
 191   0.0000       4.438629       120.7812 
 192   0.0000       4.445035       120.9555 
 193   0.0000       4.532471       123.3348 
 194   0.0000       4.547628       123.7472 
 195   0.0000       4.599846       125.1682 
 196   0.0000       4.665620       126.9580 
 197   0.0000       4.680222       127.3553 
 198   0.0000       4.736989       128.9000 
 199   0.0000       4.764978       129.6616 
 200   0.0000       4.818926       131.1296 
 201   0.0000       4.841226       131.7365 
 202   0.0000       4.849055       131.9495 
 203   0.0000       4.875680       132.6740 
 204   0.0000       4.887378       132.9923 
 205   0.0000       4.976738       135.4239 
 206   0.0000       5.069713       137.9539 
 207   0.0000       5.078626       138.1964 
 208   0.0000       5.091235       138.5395 
 209   0.0000       5.122967       139.4030 
 210   0.0000       5.150365       140.1486 
 211   0.0000       5.226026       142.2074 
 212   0.0000       5.255062       142.9975 
 213   0.0000       5.410658       147.2315 
 214   0.0000       5.451544       148.3441 
 215   0.0000       5.520197       150.2122 
 216   0.0000       5.560083       151.2975 
 217   0.0000       5.577312       151.7664 
 218   0.0000       5.714989       155.5128 
 219   0.0000       5.732631       155.9928 
 220   0.0000       5.769035       156.9834 
 221   0.0000       5.882875       160.0812 
 222   0.0000       5.892969       160.3558 
 223   0.0000       5.972366       162.5163 
 224   0.0000       6.045686       164.5115 
 225   0.0000       6.102707       166.0631 
 226   0.0000       6.162632       167.6937 
 227   0.0000       6.277854       170.8291 
 228   0.0000       6.372627       173.4080 
 229   0.0000       6.523209       177.5055 
 230   0.0000       6.863763       186.7725 
 231   0.0000       6.876867       187.1291 
 232   0.0000       6.896632       187.6669 
 233   0.0000       6.926574       188.4817 
 234   0.0000       6.941308       188.8826 
 235   0.0000       6.974086       189.7745 
 236   0.0000       7.014575       190.8763 
 237   0.0000       7.184623       195.5035 
 238   0.0000       7.660555       208.4543 
 239   0.0000       7.750430       210.8999 
 240   0.0000       7.762873       211.2385 
 241   0.0000       7.829069       213.0398 
 242   0.0000       7.841683       213.3831 
 243   0.0000       7.853837       213.7138 
 244   0.0000       7.871829       214.2034 
 245   0.0000       7.917006       215.4327 
 246   0.0000       7.925808       215.6722 
 247   0.0000       7.943568       216.1555 
 248   0.0000       8.011301       217.9986 
 249   0.0000       8.012409       218.0287 
 250   0.0000       8.043622       218.8781 
 251   0.0000       8.084190       219.9820 
 252   0.0000       8.098301       220.3660 
 253   0.0000       8.152491       221.8406 
 254   0.0000       8.250939       224.5195 
 255   0.0000       8.299713       225.8467 
 256   0.0000       8.406729       228.7587 
 257   0.0000       8.457648       230.1443 
 258   0.0000       8.623420       234.6552 
 259   0.0000       8.715711       237.1665 
 260   0.0000       8.731138       237.5863 
 261   0.0000       8.743624       237.9261 
 262   0.0000       8.761099       238.4016 
 263   0.0000       8.776774       238.8282 
 264   0.0000       8.796804       239.3732 
 265   0.0000       8.872936       241.4449 
 266   0.0000       8.933458       243.0918 
 267   0.0000       9.005515       245.0525 
 268   0.0000       9.058137       246.4844 
 269   0.0000       9.143290       248.8016 
 270   0.0000       9.153228       249.0720 
 271   0.0000       9.181776       249.8488 
 272   0.0000       9.218535       250.8491 
 273   0.0000       9.271699       252.2957 
 274   0.0000       9.354364       254.5452 
 275   0.0000       9.487166       258.1589 
 276   0.0000       9.587673       260.8938 
 277   0.0000       9.796166       266.5672 
 278   0.0000       9.855330       268.1772 
 279   0.0000       9.881727       268.8955 
 280   0.0000       9.939839       270.4768 
 281   0.0000       9.976306       271.4691 
 282   0.0000      10.041351       273.2390 
 283   0.0000      10.060915       273.7714 
 284   0.0000      10.128904       275.6215 
 285   0.0000      10.178637       276.9748 
 286   0.0000      10.370832       282.2047 
 287   0.0000      10.414946       283.4051 
 288   0.0000      10.508346       285.9466 
 289   0.0000      10.592098       288.2256 
 290   0.0000      10.913066       296.9596 
 291   0.0000      11.014594       299.7223 
 292   0.0000      11.082015       301.5570 
 293   0.0000      11.127039       302.7821 
 294   0.0000      11.200168       304.7721 
 295   0.0000      11.252171       306.1871 
 296   0.0000      11.287934       307.1603 
 297   0.0000      11.366346       309.2940 
 298   0.0000      11.395554       310.0888 
 299   0.0000      11.442416       311.3640 
 300   0.0000      11.497521       312.8635 
 301   0.0000      11.513740       313.3048 
 302   0.0000      11.658875       317.2541 
 303   0.0000      11.748972       319.7058 
 304   0.0000      11.779891       320.5471 
 305   0.0000      11.823590       321.7362 
 306   0.0000      11.852940       322.5349 
 307   0.0000      11.889140       323.5199 
 308   0.0000      12.003931       326.6436 
 309   0.0000      12.102395       329.3229 
 310   0.0000      12.153914       330.7248 
 311   0.0000      12.175400       331.3095 
 312   0.0000      12.224935       332.6574 
 313   0.0000      12.327584       335.4506 
 314   0.0000      12.337425       335.7184 
 315   0.0000      12.530185       340.9637 
 316   0.0000      12.686455       345.2160 
 317   0.0000      12.704912       345.7182 
 318   0.0000      12.743148       346.7587 
 319   0.0000      12.830820       349.1444 
 320   0.0000      12.874490       350.3327 
 321   0.0000      12.919949       351.5697 
 322   0.0000      12.975368       353.0777 
 323   0.0000      13.023044       354.3751 
 324   0.0000      13.200041       359.1914 
 325   0.0000      13.343356       363.0912 
 326   0.0000      13.856615       377.0577 
 327   0.0000      13.969399       380.1267 
 328   0.0000      14.178027       385.8037 
 329   0.0000      14.296766       389.0348 
 330   0.0000      14.449249       393.1840 
 331   0.0000      14.517448       395.0398 
 332   0.0000      14.711718       400.3262 
 333   0.0000      14.816318       403.1725 
 334   0.0000      14.841250       403.8509 
 335   0.0000      14.934841       406.3977 
 336   0.0000      15.166008       412.6881 
 337   0.0000      15.292276       416.1240 
 338   0.0000      16.859129       458.7602 
 339   0.0000      17.033769       463.5124 
 340   0.0000      17.272025       469.9957 
 341   0.0000      17.407842       473.6915 
 342   0.0000      45.679500      1243.0024 
 343   0.0000      45.980176      1251.1842 

--------------------
FRAGMENT INFORMATION
--------------------
Fragment  1:    0   1   2 
Fragment  2:    3   4   5 


                    ********************************
                    * MULLIKEN POPULATION ANALYSIS *
                    ********************************

-------------------------
MULLIKEN FRAGMENT CHARGES
-------------------------
 Fragment   0 :  -0.085972
 Fragment   1 :   0.085972
Sum of fragment charges:   -0.0000000

---------------------------------
MULLIKEN FRAGMENT OVERLAP CHARGES
---------------------------------
                  0          1    
      0      11.202427  -0.027270
      1      -0.027270  10.990045

-----------------------
MULLIKEN ATOMIC CHARGES
-----------------------
   0 O :   -0.618117
   1 H :    0.291608
   2 H :    0.240537
   3 O :   -0.536954
   4 H :    0.317199
   5 H :    0.305727
Sum of atomic charges:   -0.0000000

--------------------------------
MULLIKEN REDUCED ORBITAL CHARGES
--------------------------------
  0 O s       :     3.846386  s :     3.846386
      pz      :     1.746799  p :     4.730799
      px      :     1.533401
      py      :     1.450599
      dz2     :     0.004632  d :     0.037155
      dxz     :     0.003121
      dyz     :     0.006506
      dx2y2   :     0.014072
      dxy     :     0.008824
      f0      :     0.000714  f :     0.003276
      f+1     :     0.000345
      f-1     :     0.000216
      f+2     :     0.000774
      f-2     :     0.000398
      f+3     :     0.000262
      f-3     :     0.000569
      g0      :     0.000024  g :     0.000500
      g+1     :     0.000024
      g-1     :     0.000050
      g+2     :     0.000035
      g-2     :     0.000023
      g+3     :     0.000059
      g-3     :     0.000112
      g+4     :     0.000042
      g-4     :     0.000133
  1 H s       :     0.609976  s :     0.609976
      pz      :     0.039787  p :     0.090090
      px      :     0.026027
      py      :     0.024276
      dz2     :     0.003379  d :     0.009447
      dxz     :     0.001089
      dyz     :     0.001403
      dx2y2   :     0.000833
      dxy     :     0.002743
      f0      :    -0.000077  f :    -0.001121
      f+1     :     0.000058
      f-1     :    -0.000139
      f+2     :    -0.000342
      f-2     :    -0.000150
      f+3     :    -0.000256
      f-3     :    -0.000214
  2 H s       :     0.569020  s :     0.569020
      pz      :     0.053123  p :     0.144256
      px      :     0.046874
      py      :     0.044259
      dz2     :     0.001810  d :     0.037722
      dxz     :     0.018903
      dyz     :     0.004602
      dx2y2   :     0.002057
      dxy     :     0.010350
      f0      :     0.000608  f :     0.008465
      f+1     :     0.001100
      f-1     :     0.000406
      f+2     :     0.001010
      f-2     :     0.000491
      f+3     :     0.002817
      f-3     :     0.002032
  3 O s       :     3.847906  s :     3.847906
      pz      :     1.276808  p :     4.654208
      px      :     1.800846
      py      :     1.576554
      dz2     :     0.000731  d :     0.030305
      dxz     :     0.004092
      dyz     :     0.017998
      dx2y2   :     0.002369
      dxy     :     0.005115
      f0      :     0.000177  f :     0.003899
      f+1     :     0.000539
      f-1     :     0.001628
      f+2     :     0.000738
      f-2     :     0.000595
      f+3     :     0.000344
      f-3     :    -0.000123
      g0      :     0.000091  g :     0.000636
      g+1     :     0.000020
      g-1     :     0.000185
      g+2     :     0.000116
      g-2     :     0.000144
      g+3     :     0.000049
      g-3     :     0.000014
      g+4     :     0.000004
      g-4     :     0.000013
  4 H s       :     0.595371  s :     0.595371
      pz      :     0.018701  p :     0.081104
      px      :     0.041335
      py      :     0.021068
      dz2     :     0.001475  d :     0.008298
      dxz     :     0.002867
      dyz     :     0.001601
      dx2y2   :     0.001243
      dxy     :     0.001111
      f0      :    -0.000574  f :    -0.001972
      f+1     :    -0.000404
      f-1     :    -0.000233
      f+2     :    -0.000205
      f-2     :    -0.000284
      f+3     :    -0.000117
      f-3     :    -0.000154
  5 H s       :     0.603667  s :     0.603667
      pz      :     0.021993  p :     0.084891
      px      :     0.040926
      py      :     0.021972
      dz2     :     0.000626  d :     0.007788
      dxz     :     0.004106
      dyz     :     0.001483
      dx2y2   :     0.000423
      dxy     :     0.001150
      f0      :    -0.000970  f :    -0.002073
      f+1     :    -0.000348
      f-1     :    -0.000216
      f+2     :    -0.000086
      f-2     :    -0.000362
      f+3     :    -0.000066
      f-3     :    -0.000026


                     *******************************
                     * LOEWDIN POPULATION ANALYSIS *
                     *******************************

------------------------
LOEWDIN FRAGMENT CHARGES
------------------------
 Fragment   0 :  -0.307763
 Fragment   1 :   0.307763

----------------------------
LOEWDIN FRAGMENT BOND ORDERS
----------------------------
                  0          1    
      0      19.309872   0.969482
      1       0.969482  17.982963

----------------------
LOEWDIN ATOMIC CHARGES
----------------------
   0 O :    1.574714
   1 H :   -0.801189
   2 H :   -1.081287
   3 O :    1.676088
   4 H :   -0.660805
   5 H :   -0.707520

-------------------------------
LOEWDIN REDUCED ORBITAL CHARGES
-------------------------------
  0 O s       :     2.876990  s :     2.876990
      pz      :     1.190133  p :     3.445409
      px      :     1.158244
      py      :     1.097032
      dz2     :     0.007504  d :     0.081019
      dxz     :     0.006317
      dyz     :     0.015418
      dx2y2   :     0.030008
      dxy     :     0.021772
      f0      :     0.003342  f :     0.019140
      f+1     :     0.002087
      f-1     :     0.001379
      f+2     :     0.003758
      f-2     :     0.001485
      f+3     :     0.001988
      f-3     :     0.005101
      g0      :     0.000187  g :     0.002728
      g+1     :     0.000201
      g-1     :     0.000297
      g+2     :     0.000193
      g-2     :     0.000154
      g+3     :     0.000291
      g-3     :     0.000572
      g+4     :     0.000157
      g-4     :     0.000677
  1 H s       :     0.587175  s :     0.587175
      pz      :     0.191394  p :     0.581190
      px      :     0.155105
      py      :     0.234690
      dz2     :     0.076620  d :     0.427676
      dxz     :     0.038820
      dyz     :     0.109530
      dx2y2   :     0.081272
      dxy     :     0.121434
      f0      :     0.011659  f :     0.205149
      f+1     :     0.002647
      f-1     :     0.056310
      f+2     :     0.028143
      f-2     :     0.038556
      f+3     :     0.044418
      f-3     :     0.023418
  2 H s       :     0.530292  s :     0.530292
      pz      :     0.164643  p :     0.697145
      px      :     0.352677
      py      :     0.179825
      dz2     :     0.060493  d :     0.573601
      dxz     :     0.137608
      dyz     :     0.041923
      dx2y2   :     0.178608
      dxy     :     0.154969
      f0      :     0.029778  f :     0.280249
      f+1     :     0.037166
      f-1     :     0.010201
      f+2     :     0.028737
      f-2     :     0.037809
      f+3     :     0.086454
      f-3     :     0.050104
  3 O s       :     2.814070  s :     2.814070
      pz      :     1.025629  p :     3.353819
      px      :     1.184108
      py      :     1.144082
      dz2     :     0.019558  d :     0.119635
      dxz     :     0.016807
      dyz     :     0.045078
      dx2y2   :     0.015925
      dxy     :     0.022268
      f0      :     0.002861  f :     0.033094
      f+1     :     0.005495
      f-1     :     0.007546
      f+2     :     0.004210
      f-2     :     0.004076
      f+3     :     0.001811
      f-3     :     0.007095
      g0      :     0.000254  g :     0.003294
      g+1     :     0.000152
      g-1     :     0.000631
      g+2     :     0.000672
      g-2     :     0.000562
      g+3     :     0.000430
      g-3     :     0.000138
      g+4     :     0.000043
      g-4     :     0.000411
  4 H s       :     0.550346  s :     0.550346
      pz      :     0.181867  p :     0.510952
      px      :     0.152975
      py      :     0.176109
      dz2     :     0.124755  d :     0.399733
      dxz     :     0.075756
      dyz     :     0.091617
      dx2y2   :     0.056317
      dxy     :     0.051287
      f0      :     0.053064  f :     0.199774
      f+1     :     0.022470
      f-1     :     0.028761
      f+2     :     0.041050
      f-2     :     0.030750
      f+3     :     0.009205
      f-3     :     0.014474
  5 H s       :     0.560861  s :     0.560861
      pz      :     0.206876  p :     0.536215
      px      :     0.150185
      py      :     0.179154
      dz2     :     0.130488  d :     0.410146
      dxz     :     0.099049
      dyz     :     0.109043
      dx2y2   :     0.035450
      dxy     :     0.036116
      f0      :     0.064953  f :     0.200298
      f+1     :     0.031183
      f-1     :     0.031592
      f+2     :     0.029140
      f-2     :     0.032893
      f+3     :     0.004928
      f-3     :     0.005609


                      *****************************
                      * MAYER POPULATION ANALYSIS *
                      *****************************

  NA   - Mulliken gross atomic population
  ZA   - Total nuclear charge
  QA   - Mulliken gross atomic charge
  VA   - Mayer's total valence
  BVA  - Mayer's bonded valence
  FA   - Mayer's free valence

  ATOM       NA         ZA         QA         VA         BVA        FA
  0 O      8.6181     8.0000    -0.6181     1.9303     1.9303    -0.0000
  1 H      0.7084     1.0000     0.2916     0.9930     0.9930    -0.0000
  2 H      0.7595     1.0000     0.2405     1.1275     1.1275    -0.0000
  3 O      8.5370     8.0000    -0.5370     1.9606     1.9606    -0.0000
  4 H      0.6828     1.0000     0.3172     0.9532     0.9532     0.0000
  5 H      0.6943     1.0000     0.3057     0.9635     0.9635    -0.0000

  Mayer bond orders larger than 0.100000
B(  0-O ,  1-H ) :   0.9587 B(  0-O ,  2-H ) :   0.9929 B(  3-O ,  4-H ) :   0.9338 
B(  3-O ,  5-H ) :   0.9448 

-------
TIMINGS
-------

Total SCF time: 0 days 0 hours 0 min 9 sec 

Total time                  ....       9.715 sec
Sum of individual times     ....      15.721 sec  (161.8%)

Fock matrix formation       ....      15.077 sec  (155.2%)
  Split-RI-J                ....       2.329 sec  ( 15.4% of F)
  Chain of spheres X        ....       6.223 sec  ( 41.3% of F)
Diagonalization             ....       0.054 sec  (  0.6%)
Density matrix formation    ....       0.010 sec  (  0.1%)
Population analysis         ....       0.034 sec  (  0.3%)
Initial guess               ....       0.039 sec  (  0.4%)
Orbital Transformation      ....       0.000 sec  (  0.0%)
Orbital Orthonormalization  ....       0.000 sec  (  0.0%)
DIIS solution               ....       0.026 sec  (  0.3%)
SOSCF solution              ....       0.152 sec  (  1.6%)

Maximum memory used throughout the entire SCF-calculation: 95.5 MB


           ************************************************************
           *        Program running with 16 parallel MPI-processes    *
           *              working on a common directory               *
           ************************************************************


--------------------------------------------------------------------------------
                             ORCA-MATRIX DRIVEN CI
--------------------------------------------------------------------------------


Wavefunction type
-----------------
Correlation treatment                      ...      CCSD     
Single excitations                         ... ON
Orbital optimization                       ... OFF
Calculation of Z vector                    ... OFF
Calculation of Brueckner orbitals          ... OFF
Perturbative triple excitations            ... ON
Calculation of F12 correction              ... OFF
Frozen core treatment                      ... chemical core (4 el)
Reference Wavefunction                     ... RHF
  Internal Orbitals:     2 ...    9 (  8 MO's/ 16 electrons)
  Virtual  Orbitals:    10 ...  343 (334 MO's              )
Number of AO's                             ...    344
Number of electrons                        ...     20
Number of correlated electrons             ...     16

Algorithmic settings
--------------------
Integral transformation                    ... All integrals via the RI transformation
K(C) Formation                             ... RI-DLPNO
   PNO-Integral Storage                    ... ON DISK
   PNO occupation number cut-off           ... 1.000e-06
   Singles PNO occupation number cut-off   ... 3.000e-08
   PNO Mulliken prescreening cut-off       ... 1.000e-03
   Domain cut-off (Mulliken population)    ... 1.000e-03
   PNO Normalization                       ...    1
Maximum number of iterations               ...        50
Convergence tolerance (max. residuum)      ... 1.000e-06
Level shift for amplitude update           ... 2.000e-01
Maximum number of DIIS vectors             ...         7
DIIS turned on at iteration                ...         0
Damping before turning on DIIS             ...     0.500
Damping after turning on DIIS              ...     0.000
Pair specific amplitude update             ... OFF
Natural orbital iterations                 ... OFF
Perturbative natural orbital generation    ... OFF
Printlevel                                 ... 3

Singles Fock matrix elements calculated using PNOs.

Memory handling:
----------------
Maximum memory for working arrays          ...   6000 MB
Data storage in matrix containers          ... UNCOMPRESSED
Data type for integral storage             ... DOUBLE
In-Core Storage of quantities:
   Amplitudes+Sigma Vector      ... NO
   J+K operators                ... NO
   DIIS vectors                 ... NO
   3-external integrals         ... NO
   4-external integrals         ... NO

Localization treatment:
-----------------------
Localization option                        ...    6
Localization threshhold                    ... -1.0e+00
Using relative localization threshhold     ... 1.0e-08
Neglect threshold for strong pairs         ... 1.000e-05 Eh
Prescreening threshold for very weak pairs ... 1.000e-07 Eh

Initializing the integral package          ... done
Localizing the valence orbitals
Localizing the valence orbitals
------------------------------------------------------------------------------
                           ORCA ORBITAL LOCALIZATION
------------------------------------------------------------------------------

Input orbitals are from                  ... frag65.gbw
Output orbitals are to                   ... frag65.loc
Max. number of iterations                ... 128
Localizations seeded randomly            ... off
Convergence tolerance                    ... 2.000e-07
Using relative localization threshhold   ... 1.000e-08
Threshold for strong local MOs           ... 9.500e-01
Threshold for bond MOs                   ... 8.500e-01
Operator                                 ... 0
Orbital range for localization           ... 2 to 9
Localization criterion                   ... FOSTER-BOYS (AUGMENTED HESSIAN)
Doing the dipole integrals     ... o.k.
Initial value of the localization sum :   285.958506
ITERATION   0 : L=  289.5007231021 DL=  3.54e+00 (AVERGE_DL)=    0.3556792647 
ITERATION   1 : L=  290.0484953300 DL=  5.48e-01 (AVERGE_DL)=    0.1398688452 
ITERATION   2 : L=  290.1395621513 DL=  9.11e-02 (AVERGE_DL)=    0.0570296982 
ITERATION   3 : L=  290.1452543673 DL=  5.69e-03 (AVERGE_DL)=    0.0142581004 
ITERATION   4 : L=  290.1459621317 DL=  7.08e-04 (AVERGE_DL)=    0.0050276534 
ITERATION   5 : L=  290.1460471093 DL=  8.50e-05 (AVERGE_DL)=    0.0017421005 
ITERATION   6 : L=  290.1460567298 DL=  9.62e-06 (AVERGE_DL)=    0.0005861659 
ITERATION   7 : L=  290.1460577845 DL=  1.05e-06 (AVERGE_DL)=    0.0001940773 
ITERATION   8 : L=  290.1460578984 DL=  1.14e-07 (AVERGE_DL)=    0.0000637991 
LOCALIZATION SUM CONVERGED

------------------------------------------------------
AUGMENTED HESSIAN OPTIMIZATION OF FOSTER-BOYS ORBITALS
------------------------------------------------------

Spin operator:           0
Orbital window:          2 to 9
Number of iterations:    128
Gradient tolerance:      2.000e-07
Number of pairs:         28
Davidson threshold:      2000
Diagonalization method:  LAPACK
Iter:    0   L: 290.1460578984   Grad. norm: 4.510450e-04
   *** Likely close to a maximum now. ***
       Augmented Hessian eigenvalues:  2.89e-08 -1.18e+00 -1.36e+00 -2.98e+00 ... 
Iter:    1   L: 290.1460579129   Grad. norm: 1.072792e-08
LOCALIZATION HAS CONVERGED.

Eigenvalues of the Hessian:
  0 -1.179e+00
  1 -1.359e+00
  2 -2.984e+00
  3 -3.235e+00
  4 -4.383e+00
  5 -4.734e+00
  6 -5.203e+00
  7 -5.388e+00
  8 -7.015e+00
  9 -7.299e+00
    ...


--------------------------------------------------------------------------------
                    LOCALIZED MOLECULAR ORBITAL COMPOSITIONS
--------------------------------------------------------------------------------

The Mulliken populations for each LMO on each atom are computed
The LMO`s will be ordered according to atom index and type
  (A) Strongly localized MO`s have populations of >=0.950 on one atom
  (B) Two center bond orbitals have populations of >=0.850 on two atoms
  (C) Other MO`s are considered to be `delocalized`

FOUND  -   4 strongly local MO`s
       -   4 two center bond MO`s
       -   0 significantly delocalized MO`s

Rather strongly localized orbitals:
MO   5:   3O  -   1.030483
MO   4:   3O  -   0.954047
MO   3:   0O  -   1.008090
MO   2:   0O  -   1.002682
Bond-like localized orbitals:
MO   9:   5H  -   0.355837  and   3O  -   0.645516
MO   8:   4H  -   0.349318  and   3O  -   0.652249
MO   7:   2H  -   0.354127  and   0O  -   0.656874
MO   6:   1H  -   0.352272  and   0O  -   0.641596
Localized MO's were stored in: frag65.loc

Localizing the core orbitals
------------------------------------------------------------------------------
                           ORCA ORBITAL LOCALIZATION
------------------------------------------------------------------------------

Input orbitals are from                  ... frag65.loc
Output orbitals are to                   ... frag65.loc
Max. number of iterations                ... 128
Localizations seeded randomly            ... off
Convergence tolerance                    ... 2.000e-07
Using relative localization threshhold   ... 1.000e-08
Threshold for strong local MOs           ... 9.500e-01
Threshold for bond MOs                   ... 8.500e-01
Operator                                 ... 0
Orbital range for localization           ... 0 to 1
Localization criterion                   ... FOSTER-BOYS (AUGMENTED HESSIAN)
Doing the dipole integrals     ... o.k.
Initial value of the localization sum :    72.347145
ITERATION   0 : L=   72.3471445310 DL=  1.74e-08 (AVERGE_DL)=    0.0001320591 
LOCALIZATION SUM CONVERGED

------------------------------------------------------
AUGMENTED HESSIAN OPTIMIZATION OF FOSTER-BOYS ORBITALS
------------------------------------------------------

Spin operator:           0
Orbital window:          0 to 1
Number of iterations:    128
Gradient tolerance:      2.000e-07
Number of pairs:         1
Davidson threshold:      2000
Diagonalization method:  LAPACK
Iter:    0   L: 72.3471445310   Grad. norm: 3.833875e-17
   *** Likely close to a maximum now. ***
       Augmented Hessian eigenvalues:  1.40e-35 -1.05e+02
Iter:    1   L: 72.3471445310   Grad. norm: 0.000000e+00
LOCALIZATION HAS CONVERGED.

Eigenvalues of the Hessian:
  0 -1.052e+02


--------------------------------------------------------------------------------
                    LOCALIZED MOLECULAR ORBITAL COMPOSITIONS
--------------------------------------------------------------------------------

The Mulliken populations for each LMO on each atom are computed
The LMO`s will be ordered according to atom index and type
  (A) Strongly localized MO`s have populations of >=0.950 on one atom
  (B) Two center bond orbitals have populations of >=0.850 on two atoms
  (C) Other MO`s are considered to be `delocalized`

FOUND  -   2 strongly local MO`s
       -   0 two center bond MO`s
       -   0 significantly delocalized MO`s

Rather strongly localized orbitals:
MO   1:   3O  -   0.999528
MO   0:   0O  -   0.998483
Localized MO's were stored in: frag65.loc

Warning: reference  - re-canonicalizations have been set to INT 1 VIRT 1
Warning: internal orbitals are localized - no re-canonicalization of internal orbitals
Warning: UsePNO is turned on - no re-canonicalization of internal and virtual orbitals

--------------------------
CLOSED-SHELL FOCK OPERATOR
--------------------------

Restoring SHARK [2] ... ok
Entering RIJCOSX section for the Fock matrix
Trying to retrieve the full J-matrix              ... done
Updating the Fock matrix                          ... done
Making the frozen core Coulomb matrix             ... SHARKdone
Retrieving the full K-matrix                      ... done
Calculating the frozen core K-matrix              ... done
Updating the Fock matrix                          ... done
Time needed for Fock operator              ...            1.834 sec
Reference energy                           ...   -152.132430347

--------------
DLPNO SETTINGS (2015 fully linear scaling implementation)
--------------

TCutMKN:           1.000e-03
TCutPAO:           1.000e-03
TCutPNO:           1.000e-06
TCutPNOSingles:    3.000e-08
TCutEN:            9.700e-01
TCutPAOExt:        1.000e-01
TCutPairs:         1.000e-05
TCutPre:           1.000e-07
TCutOSV:           1.000e-06
TCutDOij:          1.000e-05
TCutDO:            5.000e-03
TCutC:             1.000e-04
TCutCPAO:          1.000e-03
TCutCMO:           1.000e-03
TScaleDOMP2PreScr: 2.000e+00
TScaleMKNMP2PreScr:1.000e+01
TScalePNOMP2PreScr:1.000e+00
PAO overlap thresh 1.000e-08
Using PNOs for Singles Fock computation
Use new domains
Use fully linear algorithm
TCutTNO:           1.000e-09
TCutMP2Pairs:      1.000e-06
TCutDOStrong:      1.000e-02
TCutDOWeak:        2.000e-02
TCutMKNStrong:     1.000e-02
TCutMKNWeak:       1.000e-01
NTCutTNO:          1

--------------------------
Mulliken population of the LMOs            ... ok
Performing proximity check                 ... 
 found 1 problematic atoms
   => In all likelyhood your results will be entirely fine!
   => In case you don't want to trust it, decrease TCutMKN to below 0.00094230.
   => but note that this is probably not necessary but will increase execution time
Calculating differential overlap integrals ... ok

--------------------------
ELECTRON PAIR PRESCREENING
--------------------------

Dipole-based pair screening          .... used

   TCutDOij = 1.000000e-05
   TCutPre  = 1.000000e-07
   .... Finished loop over pairs
Total time spent in the prescreening                  ...     0.000 sec
Time for pair-prescreening                            ...     0.000 sec
Time for pairlist organization                        ...     0.000 sec
Number of pairs skipped by pre-screening              ... 0
sum of pair energies estimated for screened out pairs ...       0.000000000000 Eh
Thresholds for map construction and integral transformation for crude MP2:
   TCutMKN                    ...     1.0e-02
   TCutDO                     ...     1.0e-02
   TCutPairs                  ...     1.0e-05
   TCutPNO_CrudeMP2           ...     1.0e-06
   TCutPNOSingles_CrudeMP2    ...     3.0e-08
--------------------------------
LOCAL RI TRANSFORMATION (IAVPAO)
--------------------------------

Orbital window:       2 to 9
Number of PAOs:     344
Basis functions:    344 (96 shells)
Aux. functions:    1664 (316 shells)
Use SHARK:           on

Processing maps (0.0 sec)
Average map sizes:
   Aux shells -> MOs               8.0
   Aux shells -> PAOs            344.0
   MOs        -> AO shells        96.0
   PAOs       -> AO shells        96.0

Calculating integrals (0.6 sec, 34.957 MB)
Sorting integrals (0.1 sec, 34.938 MB)
Total time for the integral transformation: 0.7 sec
--------------------------------
INITIAL GUESS AND PNO GENERATION
--------------------------------

Populations of internal orbitals onto Fragments:
   2:      1.006    0.001  assigned to fragment   1
   3:      1.017    0.001  assigned to fragment   1
   4:      0.026    0.974  assigned to fragment   2
   5:      0.003    1.058  assigned to fragment   2
   6:      1.000    0.001  assigned to fragment   1
   7:      1.017    0.017  assigned to fragment   1
   8:      0.003    1.005  assigned to fragment   2
   9:      0.002    1.005  assigned to fragment   2

Summary assignment:
   4 orbitals assigned to fragment   1
   4 orbitals assigned to fragment   2

PNO truncation parameters                   .... 
    PAOOverlapThresh   =        1.000e-08

    TCutPairs          =        1.000e-05
    TCutPNO            =        1.000e-06
    TCutPNOSingles     =        3.000e-08
    TCutMP2Pairs       =        1.000e-06
    TCutMKN            =        1.000e-02
    TCutDO             =        1.000e-02

Pair selection                          .... not used
Type of local MP2 treatment                 .... semi-local MP2
Strategy for PNO selection                  .... occupation number selection
Pair density normalization                  .... MP2 norm
Spin component scaling                      .... not used

   .... Finished loop over pairs
Making pair pair interaction lists          ... 
Pair pair interaction statistics
Nr. of pairs:                        36
Nr. of Singles:                       8
Average (per pair domain)               (Total):
Atoms:                              6.0 (6)
PNOs:                               3.1
PAOs:                  344.0 (344)
Aux functions:                    957.1 (1664)
AuxAtoms:                           3.2 (6)
EXT1 basis functions:             344.0 (344)
Interacting Pairs:                  3.0 (36)
Interacting Pairs - Singles:        8.0 (8)
Average (per Single domain):
Atoms (Singles):                    6.0 (6)
PNOs (Singles):                   101.2
Basis functions (Singles):        344.0 (344)
Interacting Singles - Singles:      8.0 (8)
Interacting Singles - Pairs:       36.0 (36)
done

                       ===========================
                         36 OF   36 PAIRS ARE KEPT CCSD PAIRS
                          0 OF   36 PAIRS ARE KEPT MP2 PAIRS FOR (T)
                          0 OF   36 PAIRS ARE SKIPPED
                       ===========================

Total time spent in the initial guess                 ...     0.504 sec
Pair domain construction                              ...     0.000 sec
Time for calculating MP2 Guess in PAOs                ...     0.137 sec
     Time for Local metric generation                 ...     0.000 sec
     Time for Local Kij generation                    ...     0.040 sec
     Time for Local MP2 calculation                   ...     0.002 sec
     Time for LMP2 iterations                         ...     0.000 sec
          prep and other time                         ...     0.000 sec
          Time for sigma                              ...     0.000 sec (    0.000 sec in k-loop)
          Time for DIIS                               ...     0.000 sec
          Time for Update                             ...     0.000 sec
      Time for LMP2 I/O                               ...     0.000 sec
      Time for Initial PNO                            ...     0.000 sec
Time for generating PNOs                              ...     0.020 sec
Time for pairlist organization                        ...     0.000 sec
Time for pair-pair interaction organization           ...     0.002 sec
Size of the domain VM**-1/2 file                      ...         0 MB
SL-MP2 correlation energy (all non-screened pairs)    ...      -0.560695691065 Eh

Initial PNO correlation energy                        ...      -0.557191166520 Eh
sum of pair energies prescreened and skipped MP2 pairs...       0.000000000000 Eh
sum of pair energies of crude MP2 skipped pairs only  ...       0.000000000000 Eh
sum of MP2 pair energies for pairs that were not kept ...       0.000000000000 Eh
sum of PNO error estimates for the kept pairs         ...      -0.003504524546 Eh
                                                          --------------------
sum of all corrections                                         -0.003504524546
Initial total correlation energy                               -0.560695691065
Thresholds for map construction and integral transformation for fine MP2 and CCSD(T) calculation:
   TCutMKN   ...     1.0e-03
   TCutDO    ...     5.0e-03
   TCutPairs ...     1.0e-05
   TCutCMO   ...     1.0e-03
   TCutCPAO  ...     1.0e-03

Thresholds for map construction and integral transformation for strong Triples:
   TCutMKN   ...     1.0e-02
   TCutDO    ...     1.0e-02
   TCutCMO   ...     1.0e-03
   TCutCPAO  ...     1.0e-03

Thresholds for map construction and integral transformation for weak Triples:
   TCutMKN   ...     1.0e-01
   TCutDO    ...     2.0e-02
   TCutCMO   ...     1.0e-03
   TCutCPAO  ...     1.0e-03

--------------------------------
LOCAL RI TRANSFORMATION (IAVPAO)
--------------------------------

Orbital window:       2 to 9
Number of PAOs:     344
Basis functions:    344 (96 shells)
Aux. functions:    1664 (316 shells)
Use SHARK:           on

Processing maps (0.0 sec)
Average map sizes:
   Aux shells -> MOs               8.0
   Aux shells -> PAOs            344.0
   MOs        -> AO shells        96.0
   PAOs       -> AO shells        96.0

Calculating integrals (0.6 sec, 34.957 MB)
Sorting integrals (0.1 sec, 34.938 MB)
Total time for the integral transformation: 0.7 sec
--------------------------------
INITIAL GUESS AND PNO GENERATION
--------------------------------

Populations of internal orbitals onto Fragments:
   2:      1.006    0.001  assigned to fragment   1
   3:      1.017    0.001  assigned to fragment   1
   4:      0.026    0.974  assigned to fragment   2
   5:      0.003    1.058  assigned to fragment   2
   6:      1.000    0.001  assigned to fragment   1
   7:      1.017    0.017  assigned to fragment   1
   8:      0.003    1.005  assigned to fragment   2
   9:      0.002    1.005  assigned to fragment   2

Summary assignment:
   4 orbitals assigned to fragment   1
   4 orbitals assigned to fragment   2

PNO truncation parameters                   .... 
    ScaleTCutPNO       =        1.000e-02
    PAOOverlapThresh   =        1.000e-08

    TCutPairs          =        1.000e-05
    TCutPNO            =        1.000e-06
    TCutPNOSingles     =        3.000e-08
    TCutMP2Pairs       =        1.000e-06
    TCutMKN            =        1.000e-03
    TCutDO             =        5.000e-03

Pair selection                          .... not used
Type of local MP2 treatment                 .... full local PMP2
Strategy for PNO selection                  .... occupation number selection
Pair density normalization                  .... MP2 norm
Spin component scaling                      .... not used

PASS-1: Formation of initial guess LMP2 amplitudes
Initial amplitudes guess done. Entering LMP2 iteration loop:
   Max. no of iterations          ...  50
   Energy convergence tolerance   ...    1.0e-07
   Residual convergence tolerance ...    5.0e-07
   Fock matrix cutoff             ...    1.0e-05 Eh
   DIIS convergence acceleration parameters:
        Max # vectors in DIIS     ... 7
        Start iteration of DIIS   ... 0
        Levelshift                ... 2.000e-01
        Damping factor 1          ... 5.000e-01
        Damping factor 2          ... 1.000e+00
   L-MP2 PNO cut-off              ...   1.0e-08
   L-MP2 PNO cut-off (core)       ...   1.0e-10
504 of 504 terms in k-loop evaluated.

                           *** Turning on DIIS ***
LMP2-Iter=   0:  ELMP2= -0.571065464006  DE=   1.0e-02 RMAX=   6.7e-03
LMP2-Iter=   1:  ELMP2= -0.576471808476  DE=   5.4e-03 RMAX=   2.9e-03
LMP2-Iter=   2:  ELMP2= -0.577241703349  DE=   7.7e-04 RMAX=   6.1e-04
LMP2-Iter=   3:  ELMP2= -0.577342912052  DE=   1.0e-04 RMAX=   1.6e-04
LMP2-Iter=   4:  ELMP2= -0.577349767164  DE=   6.9e-06 RMAX=   1.9e-05
LMP2-Iter=   5:  ELMP2= -0.577349601236  DE=   1.7e-07 RMAX=   5.0e-06
LMP2-Iter=   6:  ELMP2= -0.577349564500  DE=   3.7e-08 RMAX=   4.1e-07
LMP2-Iter=   7:  ELMP2= -0.577349557171  DE=   7.3e-09 RMAX=   9.8e-08 => CONVERGED
PASS-2: Formation of Pair natural orbitals
   .... Finished loop over pairs
Process  1:   (    4,     2):  97.434545623285 %
Process  1:   (    4,     3):  97.449144535037 %
Process  1:   (    4,     4):  99.865595286344 %
Process  1:   (    4):  99.994405609053 % (IJ)
Process  2:   (    5,     2):  95.327907483825 %
[...]
    7     3  :     -0.027566802 (  9.62)      -0.027566802      0.000000000      0.000000000       0      56
    7     6  :     -0.023479171 (  8.20)      -0.023479171      0.000000000      0.000000000       0      52

Overall summary of excitation mechanisms for this fragment:
  Total direct double excitations (i->a(ij))(j->b(ij))                      -0.286460290 (100.000 per cent)
  Total single charge-transfer    (i->a(ij))(j->b(X)) & (i->a(X))(j->b(ij))  0.000000000 (-0.000 per cent)
  Total double charge transfer    (i->a(X))(j->b(X))                         0.000000000 (-0.000 per cent)
                                                       -----------------------------
  Sum                                                  -0.286460290
  Consistency check                                    -0.286460290
 done 
 
FRAGMENT    2 =  -0.286227572954 Eh ...   

----------------------------------------------------------------------------------------------------------------------------------------
    i   j  type :        EP         (%)         Direct-            Single             Double         PNO in Mulliken                   
                                           Double Excitation     Charge-Transfer    Charge-Transfer  population range                   
                                                                                                      <0.7   >0.7                       
----------------------------------------------------------------------------------------------------------------------------------------
    8     8  :     -0.033409043 ( 11.67)      -0.033409043      0.000000000      0.000000000       0      49
    9     9  :     -0.033022424 ( 11.54)      -0.033022424      0.000000000      0.000000000       0      49
    5     4  :     -0.030979858 ( 10.82)      -0.029317273     -0.001588277     -0.000074308       0      57
    5     5  :     -0.028036732 (  9.80)      -0.028036732      0.000000000      0.000000000       2      47
    4     4  :     -0.027901555 (  9.75)      -0.023959833     -0.002718382     -0.001223340       3      46
    8     5  :     -0.027751976 (  9.70)      -0.027365680     -0.000386259     -0.000000037       0      56
    9     5  :     -0.027589671 (  9.64)      -0.027210006     -0.000379638     -0.000000027       0      56
    8     4  :     -0.027123760 (  9.48)      -0.026069942     -0.001040348     -0.000013469       0      56
    9     4  :     -0.026965036 (  9.42)      -0.025931333     -0.001019244     -0.000014459       0      56
    9     8  :     -0.023447519 (  8.19)      -0.023447519      0.000000000      0.000000000       1      51

Overall summary of excitation mechanisms for this fragment:
  Total direct double excitations (i->a(ij))(j->b(ij))                      -0.277769784 (97.045 per cent)
  Total single charge-transfer    (i->a(ij))(j->b(X)) & (i->a(X))(j->b(ij)) -0.007132149 ( 2.492 per cent)
  Total double charge transfer    (i->a(X))(j->b(X))                        -0.001325640 ( 0.463 per cent)
                                                       -----------------------------
  Sum                                                  -0.286227573
  Consistency check                                    -0.286227573
 done 
 
 

Decomposition of the inter-fragments strong pairs energies .. 

FRAGMENTS    2,1 =  -0.005804216055 Eh ...   

------------------------------------------------------------------------------------------------------------------------------------------------
    i   j  type :         EP        (%)         Dipole-            Cross              Charge        Charge          PNO in Mulliken            
                                                 Dipole           Excitation          Transfer      Transfer        population range            
                                                                                                                      <0.7  >0.7                
------------------------------------------------------------------------------------------------------------------------------------------------
MAXIMUM NO OF ITERATIONS EXCEEDED - LOCALIZATION NOT CONVERGED
    4     7  :     -0.002270420 ( 39.12)      -0.000693142     -0.000034005     -0.000097595     -0.001445679       5      21
    4     2  :     -0.000510158 (  8.79)      -0.000219923     -0.000002672     -0.000016438     -0.000271125       3      13
    5     7  :     -0.000506301 (  8.72)      -0.000320651      0.000000456     -0.000158815     -0.000027291       3      10
    4     3  :     -0.000501405 (  8.64)      -0.000221690     -0.000001097     -0.000014577     -0.000264041       3      13
    8     7  :     -0.000410306 (  7.07)      -0.000258760      0.000003514     -0.000141635     -0.000013425       3      10
    4     6  :     -0.000408314 (  7.03)      -0.000055515      0.000001611     -0.000000277     -0.000354134       3      10
    9     7  :     -0.000406347 (  7.00)      -0.000286386      0.000001001     -0.000053851     -0.000067111       2      11
    5     3  :     -0.000115572 (  1.99)      -0.000095305      0.000001021     -0.000012660     -0.000008627       0       8
    5     2  :     -0.000102523 (  1.77)      -0.000074067     -0.000000182     -0.000016144     -0.000012129       2       6
    9     2  :     -0.000098772 (  1.70)      -0.000077458      0.000000881     -0.000010056     -0.000012138       0       9
    8     3  :     -0.000095732 (  1.65)      -0.000080229      0.000001641     -0.000000809     -0.000016336       0       8
    8     2  :     -0.000088850 (  1.53)      -0.000079536      0.000001867     -0.000000470     -0.000010711       0       8
    5     6  :     -0.000083296 (  1.44)      -0.000074556      0.000000674     -0.000006518     -0.000002896       1       7
    9     3  :     -0.000081513 (  1.40)      -0.000069677      0.000001295     -0.000000428     -0.000012704       0       8
    9     6  :     -0.000062413 (  1.08)      -0.000051609      0.000000777     -0.000000081     -0.000011500       0       8
    8     6  :     -0.000062294 (  1.07)      -0.000051271      0.000000681     -0.000000228     -0.000011476       0       8
----------------------------------------------------------------------------------------------------------------------------------------------------------
                   -0.005804216               -0.002709774     -0.000022537     -0.000530583     -0.002541322 
                                                 ( 46.69%)        (  0.39%)        (  9.14%)        ( 43.78%)
----------------------------------------------------------------------------------------------------------------------------------------------------------

Overall summary of excitation mechanisms for this fragment pair:
  Total local dipole excitations    (i->a(i))(j->b(j)) -0.002709774 (46.686 per cent)
  Total Cross excitations           (i->a(j))(j->b(i)) -0.000022537 ( 0.388 per cent)
  Total Charge transfer excitations (i->a(i))(j->b(i)) -0.000530583 ( 9.141 per cent)
  Total Charge transfer excitations (i->a(j))(j->b(j)) -0.002541322 (43.784 per cent)
                                                       -----------------------------
  Sum                                                  -0.005804216
  Consistency check                                    -0.005804216
 done 
 
 
Summary Strong Pairs Energy Decomposition    
 
Intra fragment contributions: 
INTRA Fragment 1                       -0.286460290 
INTRA Fragment 2                       -0.277769784 

Charge transfer contributions: 
Charge Transfer 1 to 2                 -0.000530583 
Charge Transfer 2 to 1                 -0.010999111 

Dispersion contributions: 
Dispersion  2,1                        -0.002732311 

Singles contributions:                   
Singles energy                         -0.000001924 
 

------------------------------------------------- 
FINAL SUMMARY DLPNO-CCSD ENERGY DECOMPOSITION (Eh)
------------------------------------------------- 
 
Intrafragment REF. energy:                   
Intra fragment   1 (REF.)              -76.030039221     
Intra fragment   2 (REF.)              -76.030820764     

Interaction of fragments  2 and  1:  
Electrostatics (REF.)                  -0.061130153 
Exchange (REF.)                        -0.010440201 
Dispersion (strong pairs)              -0.002732311 
Dispersion (weak pairs)                -0.000425720 

Sum of non dispersive correlation terms: 
Non dispersion (strong pairs)          -0.575761691  
Non dispersion (weak pairs)            -0.002988831  

#Time for LED analysis ..       3.3 (sec)



--------------------------------------------------------------------------------
                                    TIMINGS
--------------------------------------------------------------------------------


Total execution time                   ...       81.688 sec

Localization of occupied MO's          ...        0.308 sec (  0.4%)
Fock Matrix Formation                  ...        1.834 sec (  2.2%)
Global overlap, Fock, MKN matrices     ...        0.384 sec (  0.5%)
Differential overlap integrals         ...        0.677 sec (  0.8%)
Organizing maps                        ...        0.019 sec (  0.0%)
RI 3-index integral generations        ...        3.159 sec (  3.9%)
RI-PNO integral transformation         ...       13.479 sec ( 16.5%)
Initial Guess                          ...        2.093 sec (  2.6%)
DIIS Solver                            ...        0.321 sec (  0.4%)
State Vector Update                    ...        0.003 sec (  0.0%)
Sigma-vector construction              ...       11.502 sec ( 14.1%)
  <D|H|D>(0-ext)                       ...        0.074 sec (  0.6% of sigma)
  <D|H|D>(2-ext Fock)                  ...        0.002 sec (  0.0% of sigma)
  <D|H|D>(2-ext)                       ...        0.635 sec (  5.5% of sigma)
  <D|H|D>(4-ext)                       ...        2.122 sec ( 18.4% of sigma)
  <D|H|D>(4-ext-corr)                  ...        6.508 sec ( 56.6% of sigma)
  CCSD doubles correction              ...        0.010 sec (  0.1% of sigma)
  <S|H|S>                              ...        0.177 sec (  1.5% of sigma)
  <S|H|D>(1-ext)                       ...        0.013 sec (  0.1% of sigma)
  <S|H|D>(3-ext)                       ...        0.040 sec (  0.3% of sigma)
  Fock-dressing                        ...        0.451 sec (  3.9% of sigma)
  Singles amplitudes                   ...        0.068 sec (  0.6% of sigma)
  (ik|jl)-dressing                     ...        0.059 sec (  0.5% of sigma)
  (ij|ab),(ia|jb)-dressing             ...        0.186 sec (  1.6% of sigma)
  Pair energies                        ...        0.003 sec (  0.0% of sigma)
Total Time for computing (T)           ...       44.622 sec ( 54.6% of ALL)
Local Energy Decomposition             ...        3.313 sec (  4.1% of ALL)


Maximum memory used throughout the entire MDCI-calculation: 839.2 MB

-------------------------   --------------------
FINAL SINGLE POINT ENERGY      -152.733719166040
-------------------------   --------------------


                            ***************************************
                            *     ORCA property calculations      *
                            ***************************************


  WARNING: The energy has been calculated at the MDCI level but the densities
           used in the property calculations are still SCF densities
           MDCI response densities have not been calculated 
           use %mdci Density linearized end
           or  %mdci Density unrelaxed end
           or  %mdci Density orbopt end

                                    ---------------------
                                    Active property flags
                                    ---------------------
   (+) Dipole Moment


------------------------------------------------------------------------------
                       ORCA ELECTRIC PROPERTIES CALCULATION
------------------------------------------------------------------------------

Dipole Moment Calculation                       ... on
Quadrupole Moment Calculation                   ... off
Polarizability Calculation                      ... off
GBWName                                         ... frag65.gbw
Electron density                                ... frag65.scfp
The origin for moment calculation is the CENTER OF MASS  = ( 0.629973,  4.578199 -2.787889)

-------------
DIPOLE MOMENT
-------------
                                X             Y             Z
Electronic contribution:     -0.00551      -0.04575      -0.10300
Nuclear contribution   :     -1.27113      -0.52879       0.15103
                        -----------------------------------------
Total Dipole Moment    :     -1.27664      -0.57454       0.04802
                        -----------------------------------------
Magnitude (a.u.)       :      1.40079
Magnitude (Debye)      :      3.56052



--------------------
Rotational spectrum 
--------------------
 
Rotational constants in cm-1:     7.421955     0.244768     0.241946 
Rotational constants in MHz : 222504.624744  7337.964978  7253.351726 

 Dipole components along the rotational axes: 
x,y,z [a.u.] :    -1.364991     0.297067    -0.103708 
x,y,z [Debye]:    -3.469530     0.755085    -0.263605 

 

--------------------------------
SUGGESTED CITATIONS FOR THIS RUN
--------------------------------

Below you find a list of papers that are relevant to this ORCA run
We neither can nor want to force you to cite these paper, but we appreciate if you do
You receive ORCA, which is the product of a lot of hard work by many enthusiastic individuals, for free
The *only* thing we kindly ask in return is that you cite our papers,
We deeply appreciate it, if you show your appreciation for ORCA but *not* just citing the generic ORCA reference.

Please note that relegating all ORCA citations to the supporting information does *not* help us.
SI sections are not index - citations you put there will not count into our citation statistics
But we need these citations in order to attract the funding ressources that allow us to do what we are doing

Therefore, please consider citing at least a few of the papers listed below, if you are a happy ORCA user

In addition to the list printed below, the program has created the file frag65.bibtex that contains the list in bibtex format
In this format, you can import it easily in all common literature databanks and citation aid programs


List of essential papers. We consider these as the minimum necessary citations

  1. Neese,F.
     Software update: the ORCA program system, version 5.0
     WIRES Comput. Molec. Sci., 2022 12(1)e1606
     doi.org/10.1002/wcms.1606

List of papers to cite with high priority. The work reported in these papers was absolutely
necessary for this run to complete.
Our perspective: the developers of density functionals and basis sets usually get cited in chemistry papers
Good! But without the algorithms to do something with them, the functionals or basis sets would not do anything.
Hence, in our opinion, the algorithm design and method developments papers are equally worthy of getting cited

  1. Neese,F.
     An improvement of the resolution of the identity approximation for the formation of the Coulomb matrix
     J. Comp. Chem., 2003 24(14)1740-1747
     doi.org/10.1002/jcc.10318
  2. Neese,F.; Wennmohs,F.; Hansen,A.; Becker,U.
     Efficient, approximate and parallel Hartree-Fock and hybrid DFT calculations. A 'chain-of-spheres' algorithm for the Hartree-Fock exchange
     Chem. Phys., 2009 356(1-3)98-109
     doi.org/10.1016/j.chemphys.2008.10.036
  3. Neese,F.; Hansen,A.; Liakos,D.G.
     Efficient and accurate approximations to the local coupled cluster singles doubles method using a truncated pair natural orbital basis
     J. Chem. Phys., 2009 131 064103
     doi.org/10.1063/1.3173827
  4. Neese,F.; Wennmohs,F.; Hansen,A.
     Efficient and accurate local approximations to coupled-electron pair approaches: An attempt to revive the pair natural orbital method
     J. Chem. Phys., 2009 130 114108
     doi.org/10.1063/1.3086717
  5. Riplinger,C.; Neese,F.
     An efficient and near linear scaling pair natural orbital based local coupled cluster method
     J. Chem. Phys., 2013 138(3)Art. No. 034106
     doi.org/10.1063/1.4773581
  6. Riplinger,C.; Sandhoefer,B.; Hansen,A.; Neese,F.
     Natural triple excitations in local coupled cluster calculations with pair natural orbitals
     J. Chem. Phys., 2013 139(13)Art. No. 134101
     doi.org/10.1063/1.4821834
  7. Riplinger,C.; Pinski,P.; Becker,U.; Valeev,E.F.; Neese,F.
     Sparse maps-A systematic infrastructure for reduced-scaling electronic structure methods. II. Linear scaling domain based pair natural orbital coupled cluster theory
     J. Chem. Phys., 2016 144 
     doi.org/10.1063/1.4939030
  8. Schneider,W.B.; Bistoni,G.; Sparta,M.; Saitow,M.; Riplinger,C.; Auer,A.A.; Neese,F.
     Decomposition of Intermolecular Interaction Energies within the Local Pair Natural Orbital Coupled Cluster Framework
     J. Theo. Comp. Chem., 2016 12 4778-4792
     doi.org/10.1021/acs.jctc.6b00523
  9. Bistoni,G.; Riplinger,C.; Minenkov,Y.; Cavallo,L.; Auer,A.A.; Neese,F.
     Treating Subvalence Correlation Effects in Domain Based Pair Natural Orbital Coupled Cluster Calculations: An Out-of-the-Box Approach
     J. Theo. Comp. Chem., 2017 13 3220-3227
     doi.org/10.1021/acs.jctc.7b00352
 10. Guo,Y.; Riplinger,C.; Becker,U.; Liakos,D.G.; Minenkov,Y.; Cavallo,L.; Neese,F.
     Communication: An improved linear scaling perturbative triples correction for the domain based local pair-natural orbital based singles and doubles coupled cluster method DLPNO-CCSD(T)
     J. Chem. Phys., 2018 148 5
     doi.org/10.1063/1.5011798
 11. Helmich-Paris,B.; de Souza,B.; Neese,F.; Izsk,R.
     An improved chain of spheres for exchange algorithm
     J. Chem. Phys., 2021 155 104109
     doi.org/doi: 10.1063/5.0058766.

List of suggested additional citations. These are papers that are important in the 'surrounding' of 
of this run, or papers that preceded the highly important papers. If you like your results we are grateful for a citation.

  1. Izsak,R.; Neese,F.
     An overlap fitted chain of spheres exchange method
     J. Chem. Phys., 2011 135 144105
     doi.org/10.1063/1.3646921
  2. Izsak,R.; Hansen,A.; Neese,F.
     The resolution of identity and chain of spheres approximations for the LPNO-CCSD singles Fock term
     Molec. Phys., 2012 110 2413-2417
     doi.org/10.1080/00268976.2012.687466
  3. Neese,F.
     The ORCA program system
     WIRES Comput. Molec. Sci., 2012 2(1)73-78
     doi.org/10.1002/wcms.81
  4. Izsak,R.; Neese,F.; Klopper,W.
     Robust fitting techniques in the chain of spheres approximation to the Fock exchange: The role of the complementary space
     J. Chem. Phys., 2013 139 
     doi.org/10.1063/1.4819264
  5. Neese,F.
     Software update: the ORCA program system, version 4.0
     WIRES Comput. Molec. Sci., 2018 8(1)1-6
     doi.org/10.1002/wcms.1327
  6. Neese,F.; Wennmohs,F.; Becker,U.; Riplinger,C.
     The ORCA quantum chemistry program package
     J. Chem. Phys., 2020 152 Art. No. L224108
     doi.org/10.1063/5.0004608
  7. Bistoni,G.
     Finding chemical concepts in the Hilbert space: Coupled cluster analyses of noncovalent interactions
     WIRES Comput. Molec. Sci., 2020 10(3)e1442
     doi.org/10.1002/wcms.1442

Timings for individual modules:

Sum of individual times         ...       94.639 sec (=   1.577 min)
GTO integral calculation        ...        2.117 sec (=   0.035 min)   2.2 %
SCF iterations                  ...       10.168 sec (=   0.169 min)  10.7 %
MDCI module                     ...       82.354 sec (=   1.373 min)  87.0 %
                             ****ORCA TERMINATED NORMALLY****
TOTAL RUN TIME: 0 days 0 hours 1 minutes 35 seconds 378 msec