                                 *****************
                                 * O   R   C   A *
                                 *****************

                                            #,                                       
                                            ###                                      
                                            ####                                     
                                            #####                                    
                                            ######                                   
                                           ########,                                 
                                     ,,################,,,,,                         
                               ,,#################################,,                 
                          ,,##########################################,,             
                       ,#########################################, ''#####,          
                    ,#############################################,,   '####,        
                  ,##################################################,,,,####,       
                ,###########''''           ''''###############################       
              ,#####''   ,,,,##########,,,,          '''####'''          '####       
            ,##' ,,,,###########################,,,                        '##       
           ' ,,###''''                  '''############,,,                           
         ,,##''                                '''############,,,,        ,,,,,,###''
      ,#''                                            '''#######################'''  
     '                                                          ''''####''''         
             ,#######,   #######,   ,#######,      ##                                
            ,#'     '#,  ##    ##  ,#'     '#,    #''#        ######   ,####,        
            ##       ##  ##   ,#'  ##            #'  '#       #        #'  '#        
            ##       ##  #######   ##           ,######,      #####,   #    #        
            '#,     ,#'  ##    ##  '#,     ,#' ,#      #,         ##   #,  ,#        
             '#######'   ##     ##  '#######'  #'      '#     #####' # '####'        



                  #######################################################
                  #                        -***-                        #
                  #          Department of theory and spectroscopy      #
                  #    Directorship and core code : Frank Neese         #
                  #        Max Planck Institute fuer Kohlenforschung    #
                  #                Kaiser Wilhelm Platz 1               #
                  #                 D-45470 Muelheim/Ruhr               #
                  #                      Germany                        #
                  #                                                     #
                  #                  All rights reserved                #
                  #                        -***-                        #
                  #######################################################


                         Program Version 5.0  -  CURRENT   -
                                (GIT: $76ccee9ca$)
                ($2022-06-14 15:14:42 +0200 $)

                  !                     WARNING:                         !
                  !         This is a DEVELOPMENT version                !

                         (BUILD: $Mi 15. Jun 00:07:41 CEST 2022$)


 With contributions from (in alphabetic order):
   Daniel Aravena         : Magnetic Suceptibility
   Michael Atanasov       : Ab Initio Ligand Field Theory (pilot matlab implementation)
   Alexander A. Auer      : GIAO ZORA, VPT2 properties, NMR spectrum
   Ute Becker             : Parallelization
   Giovanni Bistoni       : ED, misc. LED, open-shell LED, HFLD
   Martin Brehm           : Molecular dynamics
   Dmytro Bykov           : SCF Hessian
   Vijay G. Chilkuri      : MRCI spin determinant printing, contributions to CSF-ICE
   Dipayan Datta          : RHF DLPNO-CCSD density
   Achintya Kumar Dutta   : EOM-CC, STEOM-CC
   Dmitry Ganyushin       : Spin-Orbit,Spin-Spin,Magnetic field MRCI
   Miquel Garcia          : C-PCM and meta-GGA Hessian, CC/C-PCM, Gaussian charge scheme
   Yang Guo               : DLPNO-NEVPT2, F12-NEVPT2, CIM, IAO-localization
   Andreas Hansen         : Spin unrestricted coupled pair/coupled cluster methods
   Benjamin Helmich-Paris : MC-RPA, TRAH-SCF, COSX integrals
   Lee Huntington         : MR-EOM, pCC
   Robert Izsak           : Overlap fitted RIJCOSX, COSX-SCS-MP3, EOM
   Marcus Kettner         : VPT2
   Christian Kollmar      : KDIIS, OOCD, Brueckner-CCSD(T), CCSD density, CASPT2, CASPT2-K, improved NEVPT2
   Simone Kossmann        : Meta GGA functionals, TD-DFT gradient, OOMP2, MP2 Hessian
   Martin Krupicka        : Initial AUTO-CI
   Lucas Lang             : DCDCAS
   Marvin Lechner         : AUTO-CI (C++ implementation), FIC-MRCC
   Dagmar Lenk            : GEPOL surface, SMD
   Dimitrios Liakos       : Extrapolation schemes; Compound Job, initial MDCI parallelization
   Dimitrios Manganas     : Further ROCIS development; embedding schemes
   Dimitrios Pantazis     : SARC Basis sets
   Anastasios Papadopoulos: AUTO-CI, single reference methods and gradients
   Taras Petrenko         : DFT Hessian,TD-DFT gradient, ASA, ECA, R-Raman, ABS, FL, XAS/XES, NRVS
   Peter Pinski           : DLPNO-MP2, DLPNO-MP2 Gradient
   Christoph Reimann      : Effective Core Potentials
   Marius Retegan         : Local ZFS, SOC
   Christoph Riplinger    : Optimizer, TS searches, QM/MM, DLPNO-CCSD(T), (RO)-DLPNO pert. Triples
   Tobias Risthaus        : Range-separated hybrids, TD-DFT gradient, RPA, STAB
   Michael Roemelt        : Original ROCIS implementation
   Masaaki Saitow         : Open-shell DLPNO-CCSD energy and density
   Barbara Sandhoefer     : DKH picture change effects
   Avijit Sen             : IP-ROCIS
   Kantharuban Sivalingam : CASSCF convergence, NEVPT2, FIC-MRCI
   Bernardo de Souza      : ESD, SOC TD-DFT
   Georgi Stoychev        : AutoAux, RI-MP2 NMR, DLPNO-MP2 response
   Willem Van den Heuvel  : Paramagnetic NMR
   Boris Wezisla          : Elementary symmetry handling
   Frank Wennmohs         : Technical directorship


 We gratefully acknowledge several colleagues who have allowed us to
 interface, adapt or use parts of their codes:
   Stefan Grimme, W. Hujo, H. Kruse, P. Pracht,  : VdW corrections, initial TS optimization,
                  C. Bannwarth, S. Ehlert          DFT functionals, gCP, sTDA/sTD-DF
   Ed Valeev, F. Pavosevic, A. Kumar             : LibInt (2-el integral package), F12 methods
   Garnet Chan, S. Sharma, J. Yang, R. Olivares  : DMRG
   Ulf Ekstrom                                   : XCFun DFT Library
   Mihaly Kallay                                 : mrcc  (arbitrary order and MRCC methods)
   Jiri Pittner, Ondrej Demel                    : Mk-CCSD
   Frank Weinhold                                : gennbo (NPA and NBO analysis)
   Christopher J. Cramer and Donald G. Truhlar   : smd solvation model
   Lars Goerigk                                  : TD-DFT with DH, B97 family of functionals
   V. Asgeirsson, H. Jonsson                     : NEB implementation
   FAccTs GmbH                                   : IRC, NEB, NEB-TS, DLPNO-Multilevel, CI-OPT
                                                   MM, QMMM, 2- and 3-layer-ONIOM, Crystal-QMMM,
                                                   LR-CPCM, SF, NACMEs, symmetry and pop. for TD-DFT,
                                                   nearIR, NL-DFT gradient (VV10), updates on ESD,
                                                   ML-optimized integration grids
   S Lehtola, MJT Oliveira, MAL Marques          : LibXC Library
   Liviu Ungur et al                             : ANISO software


 Your calculation uses the libint2 library for the computation of 2-el integrals
 For citations please refer to: http://libint.valeyev.net

 Your ORCA version has been built with support for libXC version: 5.2.2
 For citations please refer to: https://tddft.org/programs/libxc/

 This ORCA versions uses:
   CBLAS   interface :  Fast vector & matrix operations
   LAPACKE interface :  Fast linear algebra routines
   SCALAPACK package :  Parallel linear algebra routines
   Shared memory     :  Shared parallel matrices


================================================================================

----- Orbital basis set information -----
Your calculation utilizes the basis: aug-cc-pVQZ 
    H, B-Ne : Obtained from the ccRepo (grant-hill.group.shef.ac.uk/ccrepo) Feb. 2017
              R. A. Kendall, T. H. Dunning, Jr., R. J. Harrison, J. Chem. Phys. 96, 6796 (1992)
         He : Obtained from the ccRepo (grant-hill.group.shef.ac.uk/ccrepo) Feb. 2017
              D. E. Woon, T. H. Dunning, Jr., J. Chem. Phys. 100, 2975 (1994)
  Li-Be, Na : Obtained from the ccRepo (grant-hill.group.shef.ac.uk/ccrepo) Feb. 2017
              B. P. Prascher, D. E. Woon, K. A. Peterson, T. H. Dunning, Jr., A. K. Wilson, Theor. Chem. Acc. 128, 69 (2011)
         Mg : Obtained from the Peterson Research Group Website (tyr0.chem.wsu.edu/~kipeters) Feb. 2017
              B. P. Prascher, D. E. Woon, K. A. Peterson, T. H. Dunning, Jr., A. K. Wilson, Theor. Chem. Acc. 128, 69 (2011)
      Al-Ar : Obtained from the ccRepo (grant-hill.group.shef.ac.uk/ccrepo) Feb. 2017
              D. E. Woon, T. H. Dunning, Jr., J. Chem. Phys. 98, 1358 (1993)
      Sc-Zn : Obtained from the ccRepo (grant-hill.group.shef.ac.uk/ccrepo) Feb. 2017
              N. B. Balabanov, K. A. Peterson, J. Chem. Phys. 123, 064107 (2005)
              N. B. Balabanov, K. A. Peterson, J. Chem. Phys. 125, 074110 (2006)
      Ga-Kr : Obtained from the ccRepo (grant-hill.group.shef.ac.uk/ccrepo) Feb. 2017
              A. K. Wilson, D. E. Woon, K. A. Peterson, T. H. Dunning, Jr., J. Chem. Phys. 110, 7667 (1999)

----- AuxJ basis set information -----
----- AuxC basis set information -----
================================================================================
                                        WARNINGS
                       Please study these warnings very carefully!
================================================================================


WARNING: Post HF methods need fully converged wavefunctions
  ===> : Setting SCFConvForced true
         You can overwrite this default with %scf ConvForced false 


WARNING: MDCI localization with Augmented Hessian Foster-Boys
  ===> : Switching off randomization!

INFO   : the flag for use of the SHARK integral package has been found!

================================================================================
                                       INPUT FILE
================================================================================
NAME = frag54.inp
|  1> ! DLPNO-CCSD(T1) aug-cc-pVQZ DEFGRID3 RIJCOSX def2/J aug-cc-pV5Z/C verytightscf TightPNO LED
|  2> 
|  3> %pal nprocs 16 end
|  4> %maxcore 6000
|  5> %scf maxiter 999 end
|  6> %basis auxj "autoaux" auxc "autoaux" autoauxlmax true end
|  7> %mdci TCutPNO 1e-6 printlevel 3 end
|  8> 
|  9> * xyz 0 1
| 10> O(1)    -0.845377446     1.902266646    -1.724481185
| 11> H(1)    -1.198971324     1.335278306    -1.003913817
| 12> H(1)    -0.953209570     1.388839038    -2.529056860
| 13> O(2)     3.364853284     1.252522284    -0.119963272
| 14> H(2)     2.731853532     1.891821037    -0.517486897
| 15> H(2)     4.212012919     1.443946099    -0.529713339
| 16> *
| 17> 
| 18>                          ****END OF INPUT****
================================================================================

                       ****************************
                       * Single Point Calculation *
                       ****************************

---------------------------------
CARTESIAN COORDINATES (ANGSTROEM)
---------------------------------
  O     -0.845377    1.902267   -1.724481
  H     -1.198971    1.335278   -1.003914
  H     -0.953210    1.388839   -2.529057
  O      3.364853    1.252522   -0.119963
  H      2.731854    1.891821   -0.517487
  H      4.212013    1.443946   -0.529713

----------------------------
CARTESIAN COORDINATES (A.U.)
----------------------------
  NO LB      ZA    FRAG     MASS         X           Y           Z
   0 O     8.0000    1    15.999   -1.597532    3.594763   -3.258797
   1 H     1.0000    1     1.008   -2.265727    2.523310   -1.897122
   2 H     1.0000    1     1.008   -1.801305    2.624525   -4.779225
   3 O     8.0000    2    15.999    6.358651    2.366924   -0.226698
   4 H     1.0000    2     1.008    5.162455    3.575024   -0.977909
   5 H     1.0000    2     1.008    7.959551    2.728663   -1.001013

----------------------------------------------
CARTESIAN COORDINATES OF FRAGMENTS (ANGSTROEM)
----------------------------------------------

 FRAGMENT 1 
  O    -0.845377    1.902267   -1.724481
  H    -1.198971    1.335278   -1.003914
  H    -0.953210    1.388839   -2.529057

 FRAGMENT 2 
  O     3.364853    1.252522   -0.119963
  H     2.731854    1.891821   -0.517487
  H     4.212013    1.443946   -0.529713

--------------------------------
INTERNAL COORDINATES (ANGSTROEM)
--------------------------------
 O      0   0   0     0.000000000000     0.00000000     0.00000000
 H      1   0   0     0.982711422586     0.00000000     0.00000000
 H      1   2   0     0.960509079824   105.39089909     0.00000000
 O      1   2   3     4.552217950508    89.54085035   250.57361019
 H      4   1   2     0.983573390273    33.85502832   218.96539951
 H      4   1   2     0.960321634417   129.57195911   166.78483370

---------------------------
INTERNAL COORDINATES (A.U.)
---------------------------
 O      0   0   0     0.000000000000     0.00000000     0.00000000
 H      1   0   0     1.857055457364     0.00000000     0.00000000
 H      1   2   0     1.815099110012   105.39089909     0.00000000
 O      1   2   3     8.602445228380    89.54085035   250.57361019
 H      4   1   2     1.858684340228    33.85502832   218.96539951
 H      4   1   2     1.814744889527   129.57195911   166.78483370

---------------------
BASIS SET INFORMATION
---------------------
There are 2 groups of distinct atoms

 Group   1 Type O   : 22s7p4d3f2g contracted to 6s5p4d3f2g pattern {991111/31111/1111/111/11}
 Group   2 Type H   : 7s4p3d2f contracted to 5s4p3d2f pattern {31111/1111/111/11}

Atom   0O    basis set group =>   1
Atom   1H    basis set group =>   2
Atom   2H    basis set group =>   2
Atom   3O    basis set group =>   1
Atom   4H    basis set group =>   2
Atom   5H    basis set group =>   2
---------------------------------
AUXILIARY/J BASIS SET INFORMATION
---------------------------------
There are 2 groups of distinct atoms

 Group   1 Type O   : 16s14p13d7f7g5h3i3j contracted to 16s14p13d7f7g5h3i3j pattern {1111111111111111/11111111111111/1111111111111/1111111/1111111/11111/111/111}
 Group   2 Type H   : 15s7p6d5f5g4h3i contracted to 15s7p6d5f5g4h3i pattern {111111111111111/1111111/111111/11111/11111/1111/111}

Atom   0O    basis set group =>   1
Atom   1H    basis set group =>   2
Atom   2H    basis set group =>   2
Atom   3O    basis set group =>   1
Atom   4H    basis set group =>   2
Atom   5H    basis set group =>   2
---------------------------------
AUXILIARY/C BASIS SET INFORMATION
---------------------------------
There are 2 groups of distinct atoms

 Group   1 Type O   : 16s14p13d7f7g5h3i3j contracted to 16s14p13d7f7g5h3i3j pattern {1111111111111111/11111111111111/1111111111111/1111111/1111111/11111/111/111}
 Group   2 Type H   : 15s7p6d5f5g4h3i contracted to 15s7p6d5f5g4h3i pattern {111111111111111/1111111/111111/11111/11111/1111/111}

Atom   0O    basis set group =>   1
Atom   1H    basis set group =>   2
Atom   2H    basis set group =>   2
Atom   3O    basis set group =>   1
Atom   4H    basis set group =>   2
Atom   5H    basis set group =>   2

Checking for AutoStart:
The File: frag54.gbw exists
Trying to determine its content:
     ... Fine, the file contains calculation information
     ... Fine, the calculation information was read
     ... Fine, the file contains a basis set
     ... Fine, the basis set was read
     ... Fine, the file contains a geometry
     ... Fine, the geometry was read
     ... Fine, the file contains a set of orbitals
     ... Fine, the orbitals can be read
     => possible old guess file was deleted
     => GBW file was renamed to GES file
     => GES file is set as startup file
     => Guess is set to MORead
     ... now leaving AutoStart



           ************************************************************
           *        Program running with 16 parallel MPI-processes    *
           *              working on a common directory               *
           ************************************************************
------------------------------------------------------------------------------
                           ORCA GTO INTEGRAL CALCULATION
                           -- RI-GTO INTEGRALS CHOSEN --
------------------------------------------------------------------------------
------------------------------------------------------------------------------
                   ___                                                        
                  /   \      - P O W E R E D   B Y -                         
                 /     \                                                     
                 |  |  |   _    _      __       _____    __    __             
                 |  |  |  | |  | |    /  \     |  _  \  |  |  /  |          
                  \  \/   | |  | |   /    \    | | | |  |  | /  /          
                 / \  \   | |__| |  /  /\  \   | |_| |  |  |/  /          
                |  |  |   |  __  | /  /__\  \  |    /   |      \           
                |  |  |   | |  | | |   __   |  |    \   |  |\   \          
                \     /   | |  | | |  |  |  |  | |\  \  |  | \   \       
                 \___/    |_|  |_| |__|  |__|  |_| \__\ |__|  \__/        
                                                                              
                      - O R C A' S   B I G   F R I E N D -                    
                                      &                                       
                       - I N T E G R A L  F E E D E R -                       
                                                                              
 v1 FN, 2020, v2 2021                                                         
------------------------------------------------------------------------------


Reading SHARK input file frag54.SHARKINP.tmp ... ok
Calculating pre-screening integrals         ... done (  0.0 sec) Dimension = 110
Calculating pre-screening integrals (ORCA)  ... done (  0.1 sec) Dimension = 96
Organizing shell pair data                  ... done (  0.1 sec)
Shell pair information
Total number of shell pairs                 ...      6105
Shell pairs after pre-screening             ...      5151
Total number of primitive shell pairs       ...      7521
Primitive shell pairs kept                  ...      6039
          la=0 lb=0:    867 shell pairs
          la=1 lb=0:   1010 shell pairs
          la=1 lb=1:    318 shell pairs
          la=2 lb=0:    761 shell pairs
          la=2 lb=1:    461 shell pairs
          la=2 lb=2:    186 shell pairs
          la=3 lb=0:    537 shell pairs
          la=3 lb=1:    326 shell pairs
          la=3 lb=2:    245 shell pairs
          la=3 lb=3:     93 shell pairs
          la=4 lb=0:    136 shell pairs
          la=4 lb=1:     88 shell pairs
          la=4 lb=2:     66 shell pairs
          la=4 lb=3:     48 shell pairs
          la=4 lb=4:      9 shell pairs

Calculating one electron integrals          ... done (  0.0 sec)
Calculating RI/J V-Matrix + Cholesky decomp.... done (  0.6 sec)
Calculating RI/C V-Matrix + Cholesky decomp.... done (  0.6 sec)
Calculating Nuclear repulsion               ... done (  0.0 sec) ENN=     29.701680866602 Eh

SHARK setup successfully completed in   1.6 seconds

Maximum memory used throughout the entire GTOINT-calculation: 93.9 MB


           ************************************************************
           *        Program running with 16 parallel MPI-processes    *
           *              working on a common directory               *
           ************************************************************
-------------------------------------------------------------------------------
                                 ORCA SCF
-------------------------------------------------------------------------------

------------
SCF SETTINGS
------------
Hamiltonian:
 Ab initio Hamiltonian  Method          .... Hartree-Fock(GTOs)
 RI-approximation to the Coulomb term is turned on
   Number of AuxJ basis functions       .... 1664
   RIJ-COSX (HFX calculated with COS-X)).... on


General Settings:
 Integral files         IntName         .... frag54
 Hartree-Fock type      HFTyp           .... RHF
 Total Charge           Charge          ....    0
 Multiplicity           Mult            ....    1
 Number of Electrons    NEL             ....   20
 Basis Dimension        Dim             ....  344
 Nuclear Repulsion      ENuc            ....     29.7016808666 Eh

Convergence Acceleration:
 DIIS                   CNVDIIS         .... on
   Start iteration      DIISMaxIt       ....    12
   Startup error        DIISStart       ....  0.200000
   # of expansion vecs  DIISMaxEq       ....     5
   Bias factor          DIISBfac        ....   1.050
   Max. coefficient     DIISMaxC        ....  10.000
 Trust-Rad. Augm. Hess. CNVTRAH         .... auto
   Auto Start mean grad. ratio tolernc. ....  1.125000
   Auto Start start iteration           ....     1
   Auto Start num. interpolation iter.  ....    10
   Max. Number of Micro iterations      ....    24
   Max. Number of Macro iterations      .... Maxiter - #DIIS iter
   Max. Number of back steps            ....     5
   Number of Davidson start vectors     ....     2
   Converg. threshold I  (grad. norm)   ....   2.000e-06
   Converg. threshold II (energy diff.) ....   1.000e-09
   Grad. Scal. Fac. for Micro threshold ....   0.100
   Minimum threshold for Micro iter.    ....   1.000e-02
   NR start threshold (gradient norm)   ....   1.000e-04
   Initial trust radius                 ....   0.400
   Minimum AH scaling param. (alpha)    ....   1.000
   Maximum AH scaling param. (alpha)    .... 1000.000
   Inactive MOs                         .... canonicalized
   Orbital update algorithm             .... Taylor
   White noise on init. David. guess    .... on
   Maximum white noise                  ....   0.010
   Quad. conv. algorithm                .... NR
   Preconditioner                       .... approx. diagonal
 SOSCF                  CNVSOSCF        .... on
   Start iteration      SOSCFMaxIt      ....   150
   Startup grad/error   SOSCFStart      ....  0.003300
 Level Shifting         CNVShift        .... on
   Level shift para.    LevelShift      ....    0.2500
   Turn off err/grad.   ShiftErr        ....    0.0010
 Zerner damping         CNVZerner       .... off
 Static damping         CNVDamp         .... on
   Fraction old density DampFac         ....    0.7000
   Max. Damping (<1)    DampMax         ....    0.9800
   Min. Damping (>=0)   DampMin         ....    0.0000
   Turn off err/grad.   DampErr         ....    0.1000

SCF Procedure:
 Maximum # iterations   MaxIter         ....   999
 SCF integral mode      SCFMode         .... Direct
   Integral package                     .... SHARK and LIBINT hybrid scheme
 Reset frequency        DirectResetFreq ....    20
 Integral Threshold     Thresh          ....  1.000e-12 Eh
 Primitive CutOff       TCut            ....  1.000e-14 Eh

Convergence Tolerance:
 Convergence Check Mode ConvCheckMode   .... Total+1el-Energy
 Convergence forced     ConvForced      .... 1
 Energy Change          TolE            ....  1.000e-09 Eh
 1-El. energy change                    ....  1.000e-06 Eh
 Orbital Gradient       TolG            ....  2.000e-06
 Orbital Rotation angle TolX            ....  2.000e-06
 DIIS Error             TolErr          ....  1.000e-08


Diagonalization of the overlap matrix:
Smallest eigenvalue                        ... 8.044e-05
Time for diagonalization                   ...    0.015 sec
Threshold for overlap eigenvalues          ... 1.000e-08
Number of eigenvalues below threshold      ... 0
Time for construction of square roots      ...    0.011 sec
Total time needed                          ...    0.028 sec

---------------------
INITIAL GUESS: MOREAD
---------------------
Guess MOs are being read from file: frag54.ges
Input Geometry matches current geometry (good)
Atom 0: N(Shells)= 20 and 14 - projection required
Input basis set needs projection
NBasis(read)= 184
NBasis(calc)= 344
Basis set overlap was calculated
Using GuessMode=FMatrix for the initial guess
C*T matrix was formed
Effective Fockian was calculated
Effective Fockian was diagonalized
Initial density was built
                      ------------------
                      INITIAL GUESS DONE (   0.0 sec)
                      ------------------
--------------------
COSX GRID GENERATION
--------------------

GRIDX 1
-------
General Integration Accuracy     IntAcc      ... 4.020
Radial Grid Type                 RadialGrid  ... OptM3 with GC (2021)
Angular Grid (max. ang.)         AngularGrid ... 2 (Lebedev-110)
Angular grid pruning method      GridPruning ... 4 (adaptive)
Weight generation scheme         WeightScheme... Becke
Basis function cutoff            BFCut       ... 1.0000e-12
Integration weight cutoff        WCut        ... 1.0000e-14
Angular grids for H and He will be reduced by one unit
Partially contracted basis set               ... on
Rotationally invariant grid construction     ... off

Total number of grid points                  ...     8287
Total number of batches                      ...      133
Average number of points per batch           ...       62
Average number of grid points per atom       ...     1381
UseSFitting                                  ... on

GRIDX 2
-------
General Integration Accuracy     IntAcc      ... 4.338
Radial Grid Type                 RadialGrid  ... OptM3 with GC (2021)
Angular Grid (max. ang.)         AngularGrid ... 3 (Lebedev-194)
Angular grid pruning method      GridPruning ... 4 (adaptive)
Weight generation scheme         WeightScheme... Becke
Basis function cutoff            BFCut       ... 1.0000e-12
Integration weight cutoff        WCut        ... 1.0000e-14
Angular grids for H and He will be reduced by one unit
Partially contracted basis set               ... on
Rotationally invariant grid construction     ... off

Total number of grid points                  ...    18924
Total number of batches                      ...      299
Average number of points per batch           ...       63
Average number of grid points per atom       ...     3154
UseSFitting                                  ... on

GRIDX 3
-------
General Integration Accuracy     IntAcc      ... 4.871
Radial Grid Type                 RadialGrid  ... OptM3 with GC (2021)
Angular Grid (max. ang.)         AngularGrid ... 4 (Lebedev-302)
Angular grid pruning method      GridPruning ... 4 (adaptive)
Weight generation scheme         WeightScheme... Becke
Basis function cutoff            BFCut       ... 1.0000e-12
Integration weight cutoff        WCut        ... 1.0000e-14
Angular grids for H and He will be reduced by one unit
Partially contracted basis set               ... on
Rotationally invariant grid construction     ... off

Total number of grid points                  ...    36958
Total number of batches                      ...      580
Average number of points per batch           ...       63
Average number of grid points per atom       ...     6160
UseSFitting                                  ... on

Time for X-Grid setup             =    0.320 sec

 re-compute Schwartz prescreening matrix in partially contracted basis (1) ...done (   0.080 sec)
--------------
SCF ITERATIONS
--------------
ITER       Energy         Delta-E        Max-DP      RMS-DP      [F,P]     Damp
               ***  Starting incremental Fock matrix formation  ***
  0   -152.1290464279   0.000000000000 0.00726591  0.00015698  0.0169118 0.7000
                      *** Initiating the SOSCF procedure ***
                      *** Re-Reading the Fockian *** 
                      *** Removing any level shift *** 
ITER       Energy         Delta-E        Max-DP      RMS-DP   
  1   -152.1293838420  -0.000337414110 0.01933923  0.00039941
               *** Restarting incremental Fock matrix formation ***
  2   -152.1301363737  -0.000752531721 0.00254846  0.00004537
  3   -152.1301409084  -0.000004534649 0.00039744  0.00000805
  4   -152.1301409965  -0.000000088106 0.00014961  0.00000283
  5   -152.1301411740  -0.000000177494 0.00001221  0.00000020
  6   -152.1301411778  -0.000000003886 0.00000433  0.00000007
  7   -152.1301411773   0.000000000555 0.00000081  0.00000001
                 **** Energy Check signals convergence ****
              ***Rediagonalizing the Fockian in SOSCF/NRSCF***

               *****************************************************
               *                     SUCCESS                       *
               *           SCF CONVERGED AFTER   8 CYCLES          *
               *****************************************************

Old exchange energy                            =    -17.861066028 Eh
New exchange energy                            =    -17.861142383 Eh
Exchange energy change after final integration =     -0.000076356 Eh
Total energy after final integration           =   -152.130217533 Eh
Final COS-X integration done in                =     1.245 sec

----------------
TOTAL SCF ENERGY
----------------

Total Energy       :         -152.13021753 Eh           -4139.67368 eV

Components:
Nuclear Repulsion  :           29.70168087 Eh             808.22383 eV
Electronic Energy  :         -181.83189840 Eh           -4947.89750 eV
One Electron Energy:         -268.83209301 Eh           -7315.29315 eV
Two Electron Energy:           87.00019461 Eh            2367.39565 eV
Max COSX asymmetry :            0.00000050 Eh               0.00001 eV

Virial components:
Potential Energy   :         -304.00171170 Eh           -8272.30713 eV
Kinetic Energy     :          151.87149417 Eh            4132.63346 eV
Virial Ratio       :            2.00170357


---------------
SCF CONVERGENCE
---------------

  Last Energy change         ...    2.3607e-10  Tolerance :   1.0000e-09
  Last MAX-Density change    ...    1.9984e-15  Tolerance :   1.0000e-08
  Last RMS-Density change    ...    7.2241e-18  Tolerance :   1.0000e-09

             **** THE GBW FILE WAS UPDATED (frag54.gbw) ****
             **** DENSITY frag54.scfp WAS UPDATED ****
             **** ENERGY FILE WAS UPDATED (frag54.en.tmp) ****
             **** THE GBW FILE WAS UPDATED (frag54.gbw) ****
             **** DENSITY frag54.scfp WAS UPDATED ****
             **** ENERGY FILE WAS UPDATED (frag54.en.tmp) ****
----------------
ORBITAL ENERGIES
----------------

  NO   OCC          E(Eh)            E(eV) 
   0   2.0000     -20.570435      -559.7500 
   1   2.0000     -20.560934      -559.4915 
   2   2.0000      -1.348682       -36.6995 
   3   2.0000      -1.339056       -36.4376 
   4   2.0000      -0.715294       -19.4641 
   5   2.0000      -0.705592       -19.2001 
   6   2.0000      -0.584616       -15.9082 
   7   2.0000      -0.574900       -15.6438 
   8   2.0000      -0.512933       -13.9576 
   9   2.0000      -0.503333       -13.6964 
  10   0.0000       0.024055         0.6546 
  11   0.0000       0.036517         0.9937 
  12   0.0000       0.043583         1.1860 
  13   0.0000       0.059392         1.6161 
  14   0.0000       0.110659         3.0112 
  15   0.0000       0.120908         3.2901 
  16   0.0000       0.135004         3.6736 
  17   0.0000       0.148387         4.0378 
  18   0.0000       0.153020         4.1639 
  19   0.0000       0.154648         4.2082 
  20   0.0000       0.169247         4.6054 
  21   0.0000       0.176189         4.7944 
  22   0.0000       0.182548         4.9674 
  23   0.0000       0.186220         5.0673 
  24   0.0000       0.202254         5.5036 
  25   0.0000       0.210502         5.7281 
  26   0.0000       0.230534         6.2731 
  27   0.0000       0.233464         6.3529 
  28   0.0000       0.260879         7.0989 
  29   0.0000       0.267597         7.2817 
  30   0.0000       0.291116         7.9217 
  31   0.0000       0.299192         8.1414 
  32   0.0000       0.319972         8.7069 
  33   0.0000       0.343983         9.3602 
  34   0.0000       0.360945         9.8218 
  35   0.0000       0.373095        10.1524 
  36   0.0000       0.388210        10.5637 
  37   0.0000       0.415358        11.3025 
  38   0.0000       0.465599        12.6696 
  39   0.0000       0.478621        13.0239 
  40   0.0000       0.508141        13.8272 
  41   0.0000       0.528711        14.3870 
  42   0.0000       0.539678        14.6854 
  43   0.0000       0.545913        14.8551 
  44   0.0000       0.551175        14.9982 
  45   0.0000       0.565093        15.3770 
  46   0.0000       0.568073        15.4580 
  47   0.0000       0.578693        15.7471 
  48   0.0000       0.596499        16.2316 
  49   0.0000       0.615243        16.7416 
  50   0.0000       0.634106        17.2549 
  51   0.0000       0.640639        17.4327 
  52   0.0000       0.650223        17.6935 
  53   0.0000       0.661131        17.9903 
  54   0.0000       0.668146        18.1812 
  55   0.0000       0.677764        18.4429 
  56   0.0000       0.693944        18.8832 
  57   0.0000       0.696699        18.9582 
  58   0.0000       0.711440        19.3593 
  59   0.0000       0.717763        19.5313 
  60   0.0000       0.731959        19.9176 
  61   0.0000       0.739361        20.1190 
  62   0.0000       0.752833        20.4856 
  63   0.0000       0.761051        20.7092 
  64   0.0000       0.771345        20.9894 
  65   0.0000       0.791067        21.5260 
  66   0.0000       0.797671        21.7057 
  67   0.0000       0.802706        21.8427 
  68   0.0000       0.809268        22.0213 
  69   0.0000       0.828409        22.5422 
  70   0.0000       0.845029        22.9944 
  71   0.0000       0.863934        23.5088 
  72   0.0000       0.866845        23.5881 
  73   0.0000       0.897674        24.4269 
  74   0.0000       0.915311        24.9069 
  75   0.0000       0.967126        26.3168 
  76   0.0000       0.980000        26.6672 
  77   0.0000       1.026301        27.9271 
  78   0.0000       1.134345        30.8671 
  79   0.0000       1.150684        31.3117 
  80   0.0000       1.157197        31.4889 
  81   0.0000       1.167070        31.7576 
  82   0.0000       1.215149        33.0659 
  83   0.0000       1.224432        33.3185 
  84   0.0000       1.335131        36.3308 
  85   0.0000       1.372628        37.3511 
  86   0.0000       1.422045        38.6958 
  87   0.0000       1.439740        39.1773 
  88   0.0000       1.467005        39.9192 
  89   0.0000       1.498677        40.7811 
  90   0.0000       1.505561        40.9684 
  91   0.0000       1.515429        41.2369 
  92   0.0000       1.518492        41.3203 
  93   0.0000       1.523922        41.4680 
  94   0.0000       1.535857        41.7928 
  95   0.0000       1.552521        42.2462 
  96   0.0000       1.556674        42.3593 
  97   0.0000       1.577779        42.9336 
  98   0.0000       1.604984        43.6738 
  99   0.0000       1.615222        43.9524 
 100   0.0000       1.620289        44.0903 
 101   0.0000       1.635251        44.4975 
 102   0.0000       1.644134        44.7392 
 103   0.0000       1.646699        44.8090 
 104   0.0000       1.661134        45.2018 
 105   0.0000       1.671615        45.4870 
 106   0.0000       1.686629        45.8955 
 107   0.0000       1.704400        46.3791 
 108   0.0000       1.711864        46.5822 
 109   0.0000       1.720336        46.8127 
 110   0.0000       1.730788        47.0971 
 111   0.0000       1.746876        47.5349 
 112   0.0000       1.752370        47.6844 
 113   0.0000       1.762025        47.9471 
 114   0.0000       1.770961        48.1903 
 115   0.0000       1.781186        48.4685 
 116   0.0000       1.788754        48.6745 
 117   0.0000       1.804186        49.0944 
 118   0.0000       1.815566        49.4041 
 119   0.0000       1.822354        49.5888 
 120   0.0000       1.848072        50.2886 
 121   0.0000       1.863537        50.7094 
 122   0.0000       1.887104        51.3507 
 123   0.0000       1.895523        51.5798 
 124   0.0000       1.904453        51.8228 
 125   0.0000       1.911622        52.0179 
 126   0.0000       1.930073        52.5200 
 127   0.0000       1.951201        53.0949 
 128   0.0000       1.973178        53.6929 
 129   0.0000       1.992549        54.2200 
 130   0.0000       2.016420        54.8696 
 131   0.0000       2.031930        55.2916 
 132   0.0000       2.038469        55.4696 
 133   0.0000       2.045619        55.6641 
 134   0.0000       2.073830        56.4318 
 135   0.0000       2.085347        56.7452 
 136   0.0000       2.121129        57.7189 
 137   0.0000       2.187261        59.5184 
 138   0.0000       2.220430        60.4210 
 139   0.0000       2.230812        60.7035 
 140   0.0000       2.240139        60.9573 
 141   0.0000       2.253695        61.3262 
 142   0.0000       2.301239        62.6199 
 143   0.0000       2.324190        63.2444 
 144   0.0000       2.452984        66.7491 
 145   0.0000       2.475744        67.3684 
 146   0.0000       2.615427        71.1694 
 147   0.0000       2.624543        71.4174 
 148   0.0000       2.647056        72.0301 
 149   0.0000       2.700767        73.4916 
 150   0.0000       2.873891        78.2025 
 151   0.0000       2.895172        78.7816 
 152   0.0000       2.939143        79.9781 
 153   0.0000       2.955268        80.4169 
 154   0.0000       2.990341        81.3713 
 155   0.0000       3.024080        82.2894 
 156   0.0000       3.032551        82.5199 
 157   0.0000       3.056967        83.1843 
 158   0.0000       3.064941        83.4013 
 159   0.0000       3.074956        83.6738 
 160   0.0000       3.079920        83.8089 
 161   0.0000       3.108836        84.5957 
 162   0.0000       3.265790        88.8667 
 163   0.0000       3.272939        89.0612 
 164   0.0000       3.286507        89.4304 
 165   0.0000       3.293746        89.6274 
 166   0.0000       3.295828        89.6840 
 167   0.0000       3.345639        91.0395 
 168   0.0000       3.498101        95.1882 
 169   0.0000       3.521493        95.8247 
 170   0.0000       3.611920        98.2854 
 171   0.0000       3.619460        98.4905 
 172   0.0000       3.642514        99.1178 
 173   0.0000       3.659912        99.5913 
 174   0.0000       3.692371       100.4745 
 175   0.0000       3.706386       100.8559 
 176   0.0000       3.712603       101.0251 
 177   0.0000       3.718084       101.1742 
 178   0.0000       3.746320       101.9426 
 179   0.0000       3.770824       102.6093 
 180   0.0000       3.928697       106.9053 
 181   0.0000       3.954628       107.6109 
 182   0.0000       4.084687       111.1500 
 183   0.0000       4.088288       111.2480 
 184   0.0000       4.166520       113.3768 
 185   0.0000       4.170061       113.4731 
 186   0.0000       4.175479       113.6206 
 187   0.0000       4.184342       113.8617 
 188   0.0000       4.184742       113.8726 
 189   0.0000       4.191997       114.0700 
 190   0.0000       4.200692       114.3066 
 191   0.0000       4.202613       114.3589 
 192   0.0000       4.247338       115.5759 
 193   0.0000       4.282041       116.5203 
 194   0.0000       4.338690       118.0618 
 195   0.0000       4.355783       118.5269 
 196   0.0000       4.451272       121.1253 
 197   0.0000       4.458092       121.3108 
 198   0.0000       4.559230       124.0630 
 199   0.0000       4.569436       124.3407 
 200   0.0000       4.677202       127.2731 
 201   0.0000       4.696203       127.7902 
 202   0.0000       4.744426       129.1024 
 203   0.0000       4.751315       129.2898 
 204   0.0000       4.778890       130.0402 
 205   0.0000       4.788259       130.2951 
 206   0.0000       4.792912       130.4218 
 207   0.0000       4.800613       130.6313 
 208   0.0000       4.812725       130.9609 
 209   0.0000       4.844152       131.8161 
 210   0.0000       4.867382       132.4482 
 211   0.0000       4.880889       132.8157 
 212   0.0000       4.996570       135.9636 
 213   0.0000       5.006213       136.2260 
 214   0.0000       5.259382       143.1151 
 215   0.0000       5.269491       143.3901 
 216   0.0000       5.316487       144.6690 
 217   0.0000       5.330766       145.0575 
 218   0.0000       5.493449       149.4843 
 219   0.0000       5.506939       149.8514 
 220   0.0000       5.519773       150.2007 
 221   0.0000       5.539158       150.7282 
 222   0.0000       5.842851       158.9921 
 223   0.0000       5.849314       159.1679 
 224   0.0000       5.865868       159.6184 
 225   0.0000       5.874440       159.8516 
 226   0.0000       6.053131       164.7141 
 227   0.0000       6.069258       165.1529 
 228   0.0000       6.205505       168.8604 
 229   0.0000       6.216808       169.1680 
 230   0.0000       6.820508       185.5955 
 231   0.0000       6.835960       186.0159 
 232   0.0000       6.847668       186.3345 
 233   0.0000       6.853963       186.5058 
 234   0.0000       6.860433       186.6819 
 235   0.0000       6.868009       186.8880 
 236   0.0000       6.918751       188.2688 
 237   0.0000       6.925981       188.4655 
 238   0.0000       7.674516       208.8342 
 239   0.0000       7.690356       209.2652 
 240   0.0000       7.752332       210.9517 
 241   0.0000       7.761601       211.2039 
 242   0.0000       7.784519       211.8275 
 243   0.0000       7.785470       211.8534 
 244   0.0000       7.792635       212.0484 
 245   0.0000       7.804314       212.3662 
 246   0.0000       7.829362       213.0478 
 247   0.0000       7.855412       213.7566 
 248   0.0000       7.892520       214.7664 
 249   0.0000       7.898796       214.9372 
 250   0.0000       7.928459       215.7443 
 251   0.0000       7.956952       216.5197 
 252   0.0000       8.007041       217.8827 
 253   0.0000       8.020343       218.2446 
 254   0.0000       8.171736       222.3643 
 255   0.0000       8.181008       222.6166 
 256   0.0000       8.236577       224.1287 
 257   0.0000       8.269784       225.0323 
 258   0.0000       8.505351       231.4424 
 259   0.0000       8.532489       232.1808 
 260   0.0000       8.615830       234.4486 
 261   0.0000       8.632629       234.9058 
 262   0.0000       8.642466       235.1735 
 263   0.0000       8.656427       235.5534 
 264   0.0000       8.728473       237.5138 
 265   0.0000       8.739101       237.8030 
 266   0.0000       8.746175       237.9955 
 267   0.0000       8.753292       238.1892 
 268   0.0000       8.839383       240.5318 
 269   0.0000       8.846230       240.7181 
 270   0.0000       8.993797       244.7337 
 271   0.0000       9.006641       245.0832 
 272   0.0000       9.028056       245.6659 
 273   0.0000       9.044442       246.1118 
 274   0.0000       9.159617       249.2459 
 275   0.0000       9.171856       249.5789 
 276   0.0000       9.593070       261.0407 
 277   0.0000       9.606069       261.3944 
 278   0.0000       9.810937       266.9692 
 279   0.0000       9.825478       267.3648 
 280   0.0000       9.869857       268.5725 
 281   0.0000       9.871009       268.6038 
 282   0.0000       9.889126       269.0968 
 283   0.0000       9.893716       269.2217 
 284   0.0000       9.974968       271.4327 
 285   0.0000       9.983062       271.6529 
 286   0.0000      10.310966       280.5757 
 287   0.0000      10.324382       280.9407 
 288   0.0000      10.423568       283.6397 
 289   0.0000      10.438637       284.0497 
 290   0.0000      10.747734       292.4607 
 291   0.0000      10.761906       292.8463 
 292   0.0000      11.002484       299.3928 
 293   0.0000      11.005159       299.4656 
 294   0.0000      11.045199       300.5551 
 295   0.0000      11.052948       300.7660 
 296   0.0000      11.132567       302.9325 
 297   0.0000      11.152313       303.4699 
 298   0.0000      11.263876       306.5057 
 299   0.0000      11.297559       307.4222 
 300   0.0000      11.309675       307.7519 
 301   0.0000      11.319786       308.0270 
 302   0.0000      11.408985       310.4543 
 303   0.0000      11.422706       310.8276 
 304   0.0000      11.678798       317.7962 
 305   0.0000      11.688637       318.0640 
 306   0.0000      11.770208       320.2837 
 307   0.0000      11.781986       320.6041 
 308   0.0000      11.838643       322.1459 
 309   0.0000      11.863650       322.8263 
 310   0.0000      11.968818       325.6881 
 311   0.0000      11.979886       325.9893 
 312   0.0000      12.158331       330.8450 
 313   0.0000      12.163782       330.9933 
 314   0.0000      12.180554       331.4497 
 315   0.0000      12.196543       331.8848 
 316   0.0000      12.548388       341.4590 
 317   0.0000      12.550346       341.5123 
 318   0.0000      12.668298       344.7219 
 319   0.0000      12.682444       345.1069 
 320   0.0000      12.766041       347.3816 
 321   0.0000      12.770254       347.4963 
 322   0.0000      12.877029       350.4018 
 323   0.0000      12.881065       350.5116 
 324   0.0000      13.185691       358.8009 
 325   0.0000      13.197865       359.1322 
 326   0.0000      13.860492       377.1631 
 327   0.0000      13.866531       377.3275 
 328   0.0000      13.973753       380.2451 
 329   0.0000      13.983270       380.5041 
 330   0.0000      14.371827       391.0773 
 331   0.0000      14.375317       391.1723 
 332   0.0000      14.731629       400.8680 
 333   0.0000      14.739720       401.0882 
 334   0.0000      14.784922       402.3182 
 335   0.0000      14.793398       402.5488 
 336   0.0000      15.134430       411.8288 
 337   0.0000      15.141044       412.0088 
 338   0.0000      16.755933       455.9521 
 339   0.0000      16.762920       456.1423 
 340   0.0000      17.193774       467.8664 
 341   0.0000      17.197395       467.9649 
 342   0.0000      45.371673      1234.6260 
 343   0.0000      45.400650      1235.4145 

--------------------
FRAGMENT INFORMATION
--------------------
Fragment  1:    0   1   2 
Fragment  2:    3   4   5 


                    ********************************
                    * MULLIKEN POPULATION ANALYSIS *
                    ********************************

-------------------------
MULLIKEN FRAGMENT CHARGES
-------------------------
 Fragment   0 :   0.000255
 Fragment   1 :  -0.000255
Sum of fragment charges:   -0.0000000

---------------------------------
MULLIKEN FRAGMENT OVERLAP CHARGES
---------------------------------
                  0          1    
      0      11.131927   0.001028
      1       0.001028  11.140038

-----------------------
MULLIKEN ATOMIC CHARGES
-----------------------
   0 O :   -0.615626
   1 H :    0.315882
   2 H :    0.299999
   3 O :   -0.608200
   4 H :    0.308871
   5 H :    0.299075
Sum of atomic charges:   -0.0000000

--------------------------------
MULLIKEN REDUCED ORBITAL CHARGES
--------------------------------
  0 O s       :     3.875403  s :     3.875403
      pz      :     1.297139  p :     4.702868
      px      :     1.815907
      py      :     1.589822
      dz2     :     0.001111  d :     0.033048
      dxz     :     0.003525
      dyz     :     0.019873
      dx2y2   :     0.003799
      dxy     :     0.004740
      f0      :     0.000184  f :     0.003769
      f+1     :     0.000347
      f-1     :     0.001464
      f+2     :     0.000563
      f-2     :     0.000785
      f+3     :     0.000316
      f-3     :     0.000109
      g0      :     0.000066  g :     0.000539
      g+1     :     0.000017
      g-1     :     0.000164
      g+2     :     0.000103
      g-2     :     0.000110
      g+3     :     0.000051
      g-3     :     0.000012
      g+4     :     0.000004
      g-4     :     0.000012
  1 H s       :     0.586217  s :     0.586217
      pz      :     0.022166  p :     0.086435
      px      :     0.041667
      py      :     0.022602
      dz2     :     0.002165  d :     0.012099
      dxz     :     0.003705
      dyz     :     0.001425
      dx2y2   :     0.003067
      dxy     :     0.001737
      f0      :    -0.000597  f :    -0.000633
      f+1     :    -0.000182
      f-1     :    -0.000205
      f+2     :     0.000160
      f-2     :     0.000002
      f+3     :    -0.000041
      f-3     :     0.000230
  2 H s       :     0.594482  s :     0.594482
      pz      :     0.021988  p :     0.093292
      px      :     0.046849
      py      :     0.024455
      dz2     :     0.001648  d :     0.012878
      dxz     :     0.006688
      dyz     :     0.001102
      dx2y2   :     0.001108
      dxy     :     0.002332
      f0      :    -0.000666  f :    -0.000651
      f+1     :    -0.000008
      f-1     :    -0.000292
      f+2     :    -0.000023
      f-2     :     0.000221
      f+3     :     0.000028
      f-3     :     0.000088
  3 O s       :     3.869801  s :     3.869801
      pz      :     1.716087  p :     4.700438
      px      :     1.320993
      py      :     1.663358
      dz2     :     0.001954  d :     0.033608
      dxz     :     0.011231
      dyz     :     0.006450
      dx2y2   :     0.004541
      dxy     :     0.009431
      f0      :     0.000845  f :     0.003818
      f+1     :     0.000081
      f-1     :     0.000088
      f+2     :     0.000635
      f-2     :     0.001017
      f+3     :     0.000633
      f-3     :     0.000519
      g0      :     0.000027  g :     0.000536
      g+1     :     0.000109
      g-1     :     0.000040
      g+2     :     0.000003
      g-2     :    -0.000000
      g+3     :     0.000105
      g-3     :     0.000082
      g+4     :     0.000115
      g-4     :     0.000056
  4 H s       :     0.584369  s :     0.584369
      pz      :     0.033526  p :     0.091527
      px      :     0.027617
      py      :     0.030384
      dz2     :     0.003208  d :     0.015357
      dxz     :     0.003653
      dyz     :     0.001406
      dx2y2   :     0.005917
      dxy     :     0.001173
      f0      :    -0.000051  f :    -0.000124
      f+1     :    -0.000115
      f-1     :     0.000186
      f+2     :     0.000109
      f-2     :     0.000051
      f+3     :    -0.000061
      f-3     :    -0.000243
  5 H s       :     0.596158  s :     0.596158
      pz      :     0.035765  p :     0.092959
      px      :     0.022466
      py      :     0.034728
      dz2     :     0.003492  d :     0.012447
      dxz     :     0.003277
      dyz     :     0.000500
      dx2y2   :     0.000206
      dxy     :     0.004973
      f0      :    -0.000071  f :    -0.000640
      f+1     :    -0.000001
      f-1     :     0.000053
      f+2     :    -0.000097
      f-2     :     0.000053
      f+3     :    -0.000353
      f-3     :    -0.000226


                     *******************************
                     * LOEWDIN POPULATION ANALYSIS *
                     *******************************

------------------------
LOEWDIN FRAGMENT CHARGES
------------------------
 Fragment   0 :   0.002075
 Fragment   1 :  -0.002075

----------------------------
LOEWDIN FRAGMENT BOND ORDERS
----------------------------
                  0          1    
      0      19.239907   0.009917
      1       0.009917  19.246074

----------------------
LOEWDIN ATOMIC CHARGES
----------------------
   0 O :    1.570986
   1 H :   -0.760025
   2 H :   -0.808885
   3 O :    1.568501
   4 H :   -0.760510
   5 H :   -0.810066

-------------------------------
LOEWDIN REDUCED ORBITAL CHARGES
-------------------------------
  0 O s       :     2.889719  s :     2.889719
      pz      :     1.046022  p :     3.449727
      px      :     1.222516
      py      :     1.181190
      dz2     :     0.013997  d :     0.069666
      dxz     :     0.008152
      dyz     :     0.041311
      dx2y2   :     0.002447
      dxy     :     0.003759
      f0      :     0.001368  f :     0.017145
      f+1     :     0.001917
      f-1     :     0.006226
      f+2     :     0.002777
      f-2     :     0.003606
      f+3     :     0.000751
      f-3     :     0.000501
      g0      :     0.000249  g :     0.002756
      g+1     :     0.000077
      g-1     :     0.000648
      g+2     :     0.000587
      g-2     :     0.000604
      g+3     :     0.000447
      g-3     :     0.000086
      g+4     :     0.000032
      g-4     :     0.000025
  1 H s       :     0.574284  s :     0.574284
      pz      :     0.189245  p :     0.556838
      px      :     0.174115
      py      :     0.193478
      dz2     :     0.128990  d :     0.423942
      dxz     :     0.081590
      dyz     :     0.096152
      dx2y2   :     0.060030
      dxy     :     0.057180
      f0      :     0.054056  f :     0.204961
      f+1     :     0.022515
      f-1     :     0.028828
      f+2     :     0.041401
      f-2     :     0.032851
      f+3     :     0.010400
      f-3     :     0.014911
  2 H s       :     0.584980  s :     0.584980
      pz      :     0.219226  p :     0.584219
      px      :     0.168323
      py      :     0.196670
      dz2     :     0.135154  d :     0.434343
      dxz     :     0.105508
      dyz     :     0.116570
      dx2y2   :     0.038221
      dxy     :     0.038890
      f0      :     0.065454  f :     0.205343
      f+1     :     0.031911
      f-1     :     0.032452
      f+2     :     0.030111
      f-2     :     0.034435
      f+3     :     0.005279
      f-3     :     0.005700
  3 O s       :     2.890807  s :     2.890807
      pz      :     1.207364  p :     3.451110
      px      :     1.055863
      py      :     1.187883
      dz2     :     0.004880  d :     0.069718
      dxz     :     0.022441
      dyz     :     0.004919
      dx2y2   :     0.015291
      dxy     :     0.022186
      f0      :     0.002519  f :     0.017117
      f+1     :     0.000553
      f-1     :     0.000512
      f+2     :     0.003400
      f-2     :     0.005028
      f+3     :     0.002749
      f-3     :     0.002357
      g0      :     0.000130  g :     0.002747
      g+1     :     0.000577
      g-1     :     0.000195
      g+2     :     0.000071
      g-2     :     0.000051
      g+3     :     0.000513
      g-3     :     0.000414
      g+4     :     0.000509
      g-4     :     0.000286
  4 H s       :     0.573194  s :     0.573194
      pz      :     0.175637  p :     0.557965
      px      :     0.176004
      py      :     0.206324
      dz2     :     0.067125  d :     0.424655
      dxz     :     0.071278
      dyz     :     0.069926
      dx2y2   :     0.131097
      dxy     :     0.085229
      f0      :     0.011426  f :     0.204696
      f+1     :     0.032219
      f-1     :     0.026713
      f+2     :     0.019774
      f-2     :     0.032639
      f+3     :     0.043512
      f-3     :     0.038412
  5 H s       :     0.585820  s :     0.585820
      pz      :     0.188293  p :     0.585536
      px      :     0.231170
      py      :     0.166074
      dz2     :     0.073487  d :     0.433716
      dxz     :     0.118660
      dyz     :     0.024872
      dx2y2   :     0.090265
      dxy     :     0.126433
      f0      :     0.010859  f :     0.204994
      f+1     :     0.058897
      f-1     :     0.002538
      f+2     :     0.028973
      f-2     :     0.024742
      f+3     :     0.032201
      f-3     :     0.046783


                      *****************************
                      * MAYER POPULATION ANALYSIS *
                      *****************************

  NA   - Mulliken gross atomic population
  ZA   - Total nuclear charge
  QA   - Mulliken gross atomic charge
  VA   - Mayer's total valence
  BVA  - Mayer's bonded valence
  FA   - Mayer's free valence

  ATOM       NA         ZA         QA         VA         BVA        FA
  0 O      8.6156     8.0000    -0.6156     1.9084     1.9084    -0.0000
  1 H      0.6841     1.0000     0.3159     0.9677     0.9677     0.0000
  2 H      0.7000     1.0000     0.3000     0.9862     0.9862    -0.0000
  3 O      8.6082     8.0000    -0.6082     1.9151     1.9151    -0.0000
  4 H      0.6911     1.0000     0.3089     0.9824     0.9824    -0.0000
  5 H      0.7009     1.0000     0.2991     0.9874     0.9874     0.0000

  Mayer bond orders larger than 0.100000
B(  0-O ,  1-H ) :   0.9445 B(  0-O ,  2-H ) :   0.9630 B(  3-O ,  4-H ) :   0.9548 
B(  3-O ,  5-H ) :   0.9601 

-------
TIMINGS
-------

Total SCF time: 0 days 0 hours 0 min 8 sec 

Total time                  ....       8.060 sec
Sum of individual times     ....      12.883 sec  (159.8%)

Fock matrix formation       ....      12.253 sec  (152.0%)
  Split-RI-J                ....       1.964 sec  ( 16.0% of F)
  Chain of spheres X        ....       4.988 sec  ( 40.7% of F)
Diagonalization             ....       0.053 sec  (  0.7%)
Density matrix formation    ....       0.010 sec  (  0.1%)
Population analysis         ....       0.027 sec  (  0.3%)
Initial guess               ....       0.038 sec  (  0.5%)
Orbital Transformation      ....       0.000 sec  (  0.0%)
Orbital Orthonormalization  ....       0.000 sec  (  0.0%)
DIIS solution               ....       0.044 sec  (  0.6%)
SOSCF solution              ....       0.137 sec  (  1.7%)

Maximum memory used throughout the entire SCF-calculation: 94.6 MB


           ************************************************************
           *        Program running with 16 parallel MPI-processes    *
           *              working on a common directory               *
           ************************************************************


--------------------------------------------------------------------------------
                             ORCA-MATRIX DRIVEN CI
--------------------------------------------------------------------------------


Wavefunction type
-----------------
Correlation treatment                      ...      CCSD     
Single excitations                         ... ON
Orbital optimization                       ... OFF
Calculation of Z vector                    ... OFF
Calculation of Brueckner orbitals          ... OFF
Perturbative triple excitations            ... ON
Calculation of F12 correction              ... OFF
Frozen core treatment                      ... chemical core (4 el)
Reference Wavefunction                     ... RHF
  Internal Orbitals:     2 ...    9 (  8 MO's/ 16 electrons)
  Virtual  Orbitals:    10 ...  343 (334 MO's              )
Number of AO's                             ...    344
Number of electrons                        ...     20
Number of correlated electrons             ...     16

Algorithmic settings
--------------------
Integral transformation                    ... All integrals via the RI transformation
K(C) Formation                             ... RI-DLPNO
   PNO-Integral Storage                    ... ON DISK
   PNO occupation number cut-off           ... 1.000e-06
   Singles PNO occupation number cut-off   ... 3.000e-08
   PNO Mulliken prescreening cut-off       ... 1.000e-03
   Domain cut-off (Mulliken population)    ... 1.000e-03
   PNO Normalization                       ...    1
Maximum number of iterations               ...        50
Convergence tolerance (max. residuum)      ... 1.000e-06
Level shift for amplitude update           ... 2.000e-01
Maximum number of DIIS vectors             ...         7
DIIS turned on at iteration                ...         0
Damping before turning on DIIS             ...     0.500
Damping after turning on DIIS              ...     0.000
Pair specific amplitude update             ... OFF
Natural orbital iterations                 ... OFF
Perturbative natural orbital generation    ... OFF
Printlevel                                 ... 3

Singles Fock matrix elements calculated using PNOs.

Memory handling:
----------------
Maximum memory for working arrays          ...   6000 MB
Data storage in matrix containers          ... UNCOMPRESSED
Data type for integral storage             ... DOUBLE
In-Core Storage of quantities:
   Amplitudes+Sigma Vector      ... NO
   J+K operators                ... NO
   DIIS vectors                 ... NO
   3-external integrals         ... NO
   4-external integrals         ... NO

Localization treatment:
-----------------------
Localization option                        ...    6
Localization threshhold                    ... -1.0e+00
Using relative localization threshhold     ... 1.0e-08
Neglect threshold for strong pairs         ... 1.000e-05 Eh
Prescreening threshold for very weak pairs ... 1.000e-07 Eh

Initializing the integral package          ... done
Localizing the valence orbitals
Localizing the valence orbitals
------------------------------------------------------------------------------
                           ORCA ORBITAL LOCALIZATION
------------------------------------------------------------------------------

Input orbitals are from                  ... frag54.gbw
Output orbitals are to                   ... frag54.loc
Max. number of iterations                ... 128
Localizations seeded randomly            ... off
Convergence tolerance                    ... 2.000e-07
Using relative localization threshhold   ... 1.000e-08
Threshold for strong local MOs           ... 9.500e-01
Threshold for bond MOs                   ... 8.500e-01
Operator                                 ... 0
Orbital range for localization           ... 2 to 9
Localization criterion                   ... FOSTER-BOYS (AUGMENTED HESSIAN)
Doing the dipole integrals     ... o.k.
Initial value of the localization sum :   290.509881
ITERATION   0 : L=  293.7250845592 DL=  3.22e+00 (AVERGE_DL)=    0.3388638577 
ITERATION   1 : L=  294.4530783022 DL=  7.28e-01 (AVERGE_DL)=    0.1612444620 
ITERATION   2 : L=  294.6843971308 DL=  2.31e-01 (AVERGE_DL)=    0.0908921709 
ITERATION   3 : L=  294.6955779253 DL=  1.12e-02 (AVERGE_DL)=    0.0199828448 
ITERATION   4 : L=  294.6966909515 DL=  1.11e-03 (AVERGE_DL)=    0.0063048344 
ITERATION   5 : L=  294.6968131222 DL=  1.22e-04 (AVERGE_DL)=    0.0020888368 
ITERATION   6 : L=  294.6968252254 DL=  1.21e-05 (AVERGE_DL)=    0.0006574634 
ITERATION   7 : L=  294.6968264007 DL=  1.18e-06 (AVERGE_DL)=    0.0002048755 
ITERATION   8 : L=  294.6968265117 DL=  1.11e-07 (AVERGE_DL)=    0.0000629719 
LOCALIZATION SUM CONVERGED

------------------------------------------------------
AUGMENTED HESSIAN OPTIMIZATION OF FOSTER-BOYS ORBITALS
------------------------------------------------------

Spin operator:           0
Orbital window:          2 to 9
Number of iterations:    128
Gradient tolerance:      2.000e-07
Number of pairs:         28
Davidson threshold:      2000
Diagonalization method:  LAPACK
Iter:    0   L: 294.6968265117   Grad. norm: 6.743661e-04
   *** Likely close to a maximum now. ***
       Augmented Hessian eigenvalues:  2.43e-08 -1.28e+00 -1.29e+00 -3.20e+00 ... 
Iter:    1   L: 294.6968265239   Grad. norm: 8.274440e-09
LOCALIZATION HAS CONVERGED.

Eigenvalues of the Hessian:
  0 -1.277e+00
  1 -1.288e+00
  2 -3.201e+00
  3 -3.211e+00
  4 -4.686e+00
  5 -4.694e+00
  6 -5.332e+00
  7 -5.343e+00
  8 -7.196e+00
  9 -7.205e+00
    ...


--------------------------------------------------------------------------------
                    LOCALIZED MOLECULAR ORBITAL COMPOSITIONS
--------------------------------------------------------------------------------

The Mulliken populations for each LMO on each atom are computed
The LMO`s will be ordered according to atom index and type
  (A) Strongly localized MO`s have populations of >=0.950 on one atom
  (B) Two center bond orbitals have populations of >=0.850 on two atoms
  (C) Other MO`s are considered to be `delocalized`

FOUND  -   4 strongly local MO`s
       -   4 two center bond MO`s
       -   0 significantly delocalized MO`s

Rather strongly localized orbitals:
MO   5:   3O  -   1.001360
MO   4:   3O  -   1.003425
MO   3:   0O  -   1.006891
MO   2:   0O  -   0.997481
Bond-like localized orbitals:
MO   9:   5H  -   0.349679  and   3O  -   0.644589
MO   8:   4H  -   0.341866  and   3O  -   0.655301
MO   7:   2H  -   0.349896  and   0O  -   0.648347
MO   6:   1H  -   0.342976  and   0O  -   0.655525
Localized MO's were stored in: frag54.loc

Localizing the core orbitals
------------------------------------------------------------------------------
                           ORCA ORBITAL LOCALIZATION
------------------------------------------------------------------------------

Input orbitals are from                  ... frag54.loc
Output orbitals are to                   ... frag54.loc
Max. number of iterations                ... 128
Localizations seeded randomly            ... off
Convergence tolerance                    ... 2.000e-07
Using relative localization threshhold   ... 1.000e-08
Threshold for strong local MOs           ... 9.500e-01
Threshold for bond MOs                   ... 8.500e-01
Operator                                 ... 0
Orbital range for localization           ... 0 to 1
Localization criterion                   ... FOSTER-BOYS (AUGMENTED HESSIAN)
Doing the dipole integrals     ... o.k.
Initial value of the localization sum :    72.180909
ITERATION   0 : L=   72.1809085795 DL=  3.92e-10 (AVERGE_DL)=    0.0000198014 
LOCALIZATION SUM CONVERGED

------------------------------------------------------
AUGMENTED HESSIAN OPTIMIZATION OF FOSTER-BOYS ORBITALS
------------------------------------------------------

Spin operator:           0
Orbital window:          0 to 1
Number of iterations:    128
Gradient tolerance:      2.000e-07
Number of pairs:         1
Davidson threshold:      2000
Diagonalization method:  LAPACK
Iter:    0   L: 72.1809085795   Grad. norm: 6.005755e-18
   *** Likely close to a maximum now. ***
       Augmented Hessian eigenvalues:  1.22e-37 -2.96e+02
Iter:    1   L: 72.1809085795   Grad. norm: 0.000000e+00
LOCALIZATION HAS CONVERGED.

Eigenvalues of the Hessian:
  0 -2.960e+02


--------------------------------------------------------------------------------
                    LOCALIZED MOLECULAR ORBITAL COMPOSITIONS
--------------------------------------------------------------------------------

The Mulliken populations for each LMO on each atom are computed
The LMO`s will be ordered according to atom index and type
  (A) Strongly localized MO`s have populations of >=0.950 on one atom
  (B) Two center bond orbitals have populations of >=0.850 on two atoms
  (C) Other MO`s are considered to be `delocalized`

FOUND  -   2 strongly local MO`s
       -   0 two center bond MO`s
       -   0 significantly delocalized MO`s

Rather strongly localized orbitals:
MO   1:   3O  -   0.999457
MO   0:   0O  -   0.999516
Localized MO's were stored in: frag54.loc

Warning: reference  - re-canonicalizations have been set to INT 1 VIRT 1
Warning: internal orbitals are localized - no re-canonicalization of internal orbitals
Warning: UsePNO is turned on - no re-canonicalization of internal and virtual orbitals

--------------------------
CLOSED-SHELL FOCK OPERATOR
--------------------------

Restoring SHARK [2] ... ok
Entering RIJCOSX section for the Fock matrix
Trying to retrieve the full J-matrix              ... done
Updating the Fock matrix                          ... done
Making the frozen core Coulomb matrix             ... SHARKdone
Retrieving the full K-matrix                      ... done
Calculating the frozen core K-matrix              ... done
Updating the Fock matrix                          ... done
Time needed for Fock operator              ...            1.455 sec
Reference energy                           ...   -152.130217504

--------------
DLPNO SETTINGS (2015 fully linear scaling implementation)
--------------

TCutMKN:           1.000e-03
TCutPAO:           1.000e-03
TCutPNO:           1.000e-06
TCutPNOSingles:    3.000e-08
TCutEN:            9.700e-01
TCutPAOExt:        1.000e-01
TCutPairs:         1.000e-05
TCutPre:           1.000e-07
TCutOSV:           1.000e-06
TCutDOij:          1.000e-05
TCutDO:            5.000e-03
TCutC:             1.000e-04
TCutCPAO:          1.000e-03
TCutCMO:           1.000e-03
TScaleDOMP2PreScr: 2.000e+00
TScaleMKNMP2PreScr:1.000e+01
TScalePNOMP2PreScr:1.000e+00
PAO overlap thresh 1.000e-08
Using PNOs for Singles Fock computation
Use new domains
Use fully linear algorithm
TCutTNO:           1.000e-09
TCutMP2Pairs:      1.000e-06
TCutDOStrong:      1.000e-02
TCutDOWeak:        2.000e-02
TCutMKNStrong:     1.000e-02
TCutMKNWeak:       1.000e-01
NTCutTNO:          1

--------------------------
Mulliken population of the LMOs            ... ok
Performing proximity check                 ... No problems found
Calculating differential overlap integrals ... ok

--------------------------
ELECTRON PAIR PRESCREENING
--------------------------

Dipole-based pair screening          .... used

   TCutDOij = 1.000000e-05
   TCutPre  = 1.000000e-07
   .... Finished loop over pairs
Total time spent in the prescreening                  ...     0.000 sec
Time for pair-prescreening                            ...     0.000 sec
Time for pairlist organization                        ...     0.000 sec
Number of pairs skipped by pre-screening              ... 0
sum of pair energies estimated for screened out pairs ...       0.000000000000 Eh
Thresholds for map construction and integral transformation for crude MP2:
   TCutMKN                    ...     1.0e-02
   TCutDO                     ...     1.0e-02
   TCutPairs                  ...     1.0e-05
   TCutPNO_CrudeMP2           ...     1.0e-06
   TCutPNOSingles_CrudeMP2    ...     3.0e-08
--------------------------------
LOCAL RI TRANSFORMATION (IAVPAO)
--------------------------------

Orbital window:       2 to 9
Number of PAOs:     344
Basis functions:    344 (96 shells)
Aux. functions:    1664 (316 shells)
Use SHARK:           on

Processing maps (0.0 sec)
Average map sizes:
   Aux shells -> MOs               8.0
   Aux shells -> PAOs            344.0
   MOs        -> AO shells        96.0
   PAOs       -> AO shells        96.0

Calculating integrals (0.6 sec, 34.957 MB)
Sorting integrals (0.1 sec, 34.938 MB)
Total time for the integral transformation: 0.7 sec
--------------------------------
INITIAL GUESS AND PNO GENERATION
--------------------------------

Populations of internal orbitals onto Fragments:
   2:      1.000    0.000  assigned to fragment   1
   3:      1.014    0.000  assigned to fragment   1
   4:      0.000    1.007  assigned to fragment   2
   5:      0.000    1.003  assigned to fragment   2
   6:      1.000    0.000  assigned to fragment   1
   7:      1.000    0.000  assigned to fragment   1
   8:      0.000    1.000  assigned to fragment   2
   9:      0.000    1.000  assigned to fragment   2

Summary assignment:
   4 orbitals assigned to fragment   1
   4 orbitals assigned to fragment   2

PNO truncation parameters                   .... 
    PAOOverlapThresh   =        1.000e-08

    TCutPairs          =        1.000e-05
    TCutPNO            =        1.000e-06
    TCutPNOSingles     =        3.000e-08
    TCutMP2Pairs       =        1.000e-06
    TCutMKN            =        1.000e-02
    TCutDO             =        1.000e-02

Pair selection                          .... not used
Type of local MP2 treatment                 .... semi-local MP2
Strategy for PNO selection                  .... occupation number selection
Pair density normalization                  .... MP2 norm
Spin component scaling                      .... not used

   .... Finished loop over pairs
Making pair pair interaction lists          ... 
Pair pair interaction statistics
Nr. of pairs:                        24
Nr. of Singles:                       8
Average (per pair domain)               (Total):
Atoms:                              5.5 (6)
PNOs:                               4.2
PAOs:                  321.0 (344)
Aux functions:                    608.1 (1664)
AuxAtoms:                           1.9 (6)
EXT1 basis functions:             344.0 (344)
Interacting Pairs:                  2.0 (24)
Interacting Pairs - Singles:        8.0 (8)
Average (per Single domain):
Atoms (Singles):                    5.1 (6)
PNOs (Singles):                    98.6
Basis functions (Singles):        303.8 (344)
Interacting Singles - Singles:      8.0 (8)
Interacting Singles - Pairs:       24.0 (24)
done

                       ===========================
                         24 OF   36 PAIRS ARE KEPT CCSD PAIRS
                          6 OF   36 PAIRS ARE KEPT MP2 PAIRS FOR (T)
                          6 OF   36 PAIRS ARE SKIPPED
                       ===========================

Total time spent in the initial guess                 ...     0.428 sec
Pair domain construction                              ...     0.000 sec
Time for calculating MP2 Guess in PAOs                ...     0.128 sec
     Time for Local metric generation                 ...     0.000 sec
     Time for Local Kij generation                    ...     0.038 sec
     Time for Local MP2 calculation                   ...     0.002 sec
     Time for LMP2 iterations                         ...     0.000 sec
          prep and other time                         ...     0.000 sec
          Time for sigma                              ...     0.000 sec (    0.000 sec in k-loop)
          Time for DIIS                               ...     0.000 sec
          Time for Update                             ...     0.000 sec
      Time for LMP2 I/O                               ...     0.000 sec
      Time for Initial PNO                            ...     0.000 sec
Time for generating PNOs                              ...     0.015 sec
Time for pairlist organization                        ...     0.000 sec
Time for pair-pair interaction organization           ...     0.001 sec
Size of the domain VM**-1/2 file                      ...         0 MB
SL-MP2 correlation energy (all non-screened pairs)    ...      -0.557623419432 Eh

Initial PNO correlation energy                        ...      -0.554436239930 Eh
sum of pair energies prescreened and skipped MP2 pairs...      -0.000023729212 Eh
sum of pair energies of crude MP2 skipped pairs only  ...       0.000000000000 Eh
sum of MP2 pair energies for pairs that were not kept ...      -0.000066833527 Eh
sum of PNO error estimates for the kept pairs         ...      -0.003120345974 Eh
                                                          --------------------
sum of all corrections                                         -0.003187179502
Initial total correlation energy                               -0.557623419432
Thresholds for map construction and integral transformation for fine MP2 and CCSD(T) calculation:
   TCutMKN   ...     1.0e-03
   TCutDO    ...     5.0e-03
   TCutPairs ...     1.0e-05
   TCutCMO   ...     1.0e-03
   TCutCPAO  ...     1.0e-03

Thresholds for map construction and integral transformation for strong Triples:
   TCutMKN   ...     1.0e-02
   TCutDO    ...     1.0e-02
   TCutCMO   ...     1.0e-03
   TCutCPAO  ...     1.0e-03

Thresholds for map construction and integral transformation for weak Triples:
   TCutMKN   ...     1.0e-01
   TCutDO    ...     2.0e-02
   TCutCMO   ...     1.0e-03
   TCutCPAO  ...     1.0e-03

--------------------------------
LOCAL RI TRANSFORMATION (IAVPAO)
--------------------------------

Orbital window:       2 to 9
Number of PAOs:     344
Basis functions:    344 (96 shells)
Aux. functions:    1664 (316 shells)
Use SHARK:           on

Processing maps (0.0 sec)
Average map sizes:
   Aux shells -> MOs               8.0
   Aux shells -> PAOs            344.0
   MOs        -> AO shells        96.0
   PAOs       -> AO shells        96.0

Calculating integrals (0.6 sec, 34.957 MB)
Sorting integrals (0.1 sec, 34.938 MB)
Total time for the integral transformation: 0.6 sec
--------------------------------
INITIAL GUESS AND PNO GENERATION
--------------------------------

Populations of internal orbitals onto Fragments:
   2:      1.000    0.000  assigned to fragment   1
   3:      1.014    0.000  assigned to fragment   1
   4:      0.000    1.007  assigned to fragment   2
   5:      0.000    1.003  assigned to fragment   2
   6:      1.000    0.000  assigned to fragment   1
   7:      1.000    0.000  assigned to fragment   1
   8:      0.000    1.000  assigned to fragment   2
   9:      0.000    1.000  assigned to fragment   2

Summary assignment:
   4 orbitals assigned to fragment   1
   4 orbitals assigned to fragment   2

PNO truncation parameters                   .... 
    ScaleTCutPNO       =        1.000e-02
    PAOOverlapThresh   =        1.000e-08

    TCutPairs          =        1.000e-05
    TCutPNO            =        1.000e-06
    TCutPNOSingles     =        3.000e-08
    TCutMP2Pairs       =        1.000e-06
    TCutMKN            =        1.000e-03
    TCutDO             =        5.000e-03

Pair selection                          .... not used
Type of local MP2 treatment                 .... full local PMP2
Strategy for PNO selection                  .... occupation number selection
Pair density normalization                  .... MP2 norm
Spin component scaling                      .... not used

PASS-1: Formation of initial guess LMP2 amplitudes
Initial amplitudes guess done. Entering LMP2 iteration loop:
   Max. no of iterations          ...  50
   Energy convergence tolerance   ...    1.0e-07
   Residual convergence tolerance ...    5.0e-07
   Fock matrix cutoff             ...    1.0e-05 Eh
   DIIS convergence acceleration parameters:
        Max # vectors in DIIS     ... 7
        Start iteration of DIIS   ... 0
        Levelshift                ... 2.000e-01
        Damping factor 1          ... 5.000e-01
        Damping factor 2          ... 1.000e+00
   L-MP2 PNO cut-off              ...   1.0e-08
   L-MP2 PNO cut-off (core)       ...   1.0e-10
342 of 420 terms in k-loop evaluated.

                           *** Turning on DIIS ***
LMP2-Iter=   0:  ELMP2= -0.567578115742  DE=   1.0e-02 RMAX=   6.1e-03
LMP2-Iter=   1:  ELMP2= -0.572998182009  DE=   5.4e-03 RMAX=   2.8e-03
LMP2-Iter=   2:  ELMP2= -0.573775412181  DE=   7.8e-04 RMAX=   5.5e-04
LMP2-Iter=   3:  ELMP2= -0.573879848445  DE=   1.0e-04 RMAX=   1.6e-04
LMP2-Iter=   4:  ELMP2= -0.573887252483  DE=   7.4e-06 RMAX=   1.8e-05
LMP2-Iter=   5:  ELMP2= -0.573887154534  DE=   9.8e-08 RMAX=   4.6e-06
LMP2-Iter=   6:  ELMP2= -0.573887125884  DE=   2.9e-08 RMAX=   4.7e-07
LMP2-Iter=   7:  ELMP2= -0.573887119099  DE=   6.8e-09 RMAX=   8.6e-08 => CONVERGED
PASS-2: Formation of Pair natural orbitals
   .... Finished loop over pairs
Process  1:   (    3,     3):  99.878103484404 %
Process  1:   (    4,     2):  79.374845420739 %
Process  1:   (    3):  99.996026041646 % (IJ)
Process  2:   (    4,     3):  65.962834175836 %
Process  2:   (    4,     4):  99.887382538814 %
Process  2:   (    4):  99.996085131143 % (IJ)
Process  3:   (    5,     2):  86.162956394295 %
Process  3:   (    5,     3):  67.402173798572 %
Process  4:   (    5,     4):  99.904143035501 %
Process  4:   (    5,     5):  99.879946734648 %
[...]

FRAGMENT    1 =  -0.288045597252 Eh ...   

----------------------------------------------------------------------------------------------------------------------------------------
    i   j  type :        EP         (%)         Direct-            Single             Double         PNO in Mulliken                   
                                           Double Excitation     Charge-Transfer    Charge-Transfer  population range                   
                                                                                                      <0.7   >0.7                       
----------------------------------------------------------------------------------------------------------------------------------------
    6     6  :     -0.033517785 ( 11.64)      -0.033517785      0.000000000      0.000000000       0      49
    7     7  :     -0.033152307 ( 11.51)      -0.033152307      0.000000000      0.000000000       0      49
    3     2  :     -0.031258113 ( 10.85)      -0.031258113      0.000000000      0.000000000       0      58
    2     2  :     -0.028141752 (  9.77)      -0.028141752      0.000000000      0.000000000       0      48
    3     3  :     -0.028133130 (  9.77)      -0.028133130      0.000000000      0.000000000       0      48
    6     2  :     -0.027651855 (  9.60)      -0.027651855      0.000000000      0.000000000       0      56
    6     3  :     -0.027648598 (  9.60)      -0.027648598      0.000000000      0.000000000       0      56
    7     2  :     -0.027511995 (  9.55)      -0.027511995      0.000000000      0.000000000       0      56
    7     3  :     -0.027509688 (  9.55)      -0.027509688      0.000000000      0.000000000       0      56
    7     6  :     -0.023520374 (  8.17)      -0.023520374      0.000000000      0.000000000       0      52

Overall summary of excitation mechanisms for this fragment:
  Total direct double excitations (i->a(ij))(j->b(ij))                      -0.288045597 (100.000 per cent)
  Total single charge-transfer    (i->a(ij))(j->b(X)) & (i->a(X))(j->b(ij))  0.000000000 (-0.000 per cent)
  Total double charge transfer    (i->a(X))(j->b(X))                         0.000000000 (-0.000 per cent)
                                                       -----------------------------
  Sum                                                  -0.288045597
  Consistency check                                    -0.288045597
 done 
 
FRAGMENT    2 =  -0.288084852304 Eh ...   

----------------------------------------------------------------------------------------------------------------------------------------
    i   j  type :        EP         (%)         Direct-            Single             Double         PNO in Mulliken                   
                                           Double Excitation     Charge-Transfer    Charge-Transfer  population range                   
                                                                                                      <0.7   >0.7                       
----------------------------------------------------------------------------------------------------------------------------------------
    8     8  :     -0.033498765 ( 11.63)      -0.033498765      0.000000000      0.000000000       0      49
    9     9  :     -0.033165884 ( 11.51)      -0.033165884      0.000000000      0.000000000       0      49
    5     4  :     -0.031258808 ( 10.85)      -0.031258808      0.000000000      0.000000000       0      58
    4     4  :     -0.028137239 (  9.77)      -0.028137239      0.000000000      0.000000000       0      49
    5     5  :     -0.028135567 (  9.77)      -0.028135567      0.000000000      0.000000000       0      48
    8     4  :     -0.027655558 (  9.60)      -0.027655558      0.000000000      0.000000000       0      56
    8     5  :     -0.027651707 (  9.60)      -0.027651707      0.000000000      0.000000000       0      56
    9     4  :     -0.027527552 (  9.56)      -0.027527552      0.000000000      0.000000000       0      56
    9     5  :     -0.027523942 (  9.55)      -0.027523942      0.000000000      0.000000000       0      56
    9     8  :     -0.023529830 (  8.17)      -0.023529830      0.000000000      0.000000000       0      52

Overall summary of excitation mechanisms for this fragment:
  Total direct double excitations (i->a(ij))(j->b(ij))                      -0.288084852 (100.000 per cent)
  Total single charge-transfer    (i->a(ij))(j->b(X)) & (i->a(X))(j->b(ij))  0.000000000 (-0.000 per cent)
  Total double charge transfer    (i->a(X))(j->b(X))                         0.000000000 (-0.000 per cent)
                                                       -----------------------------
  Sum                                                  -0.288084852
  Consistency check                                    -0.288084852
 done 
 
 

Decomposition of the inter-fragments strong pairs energies .. 

FRAGMENTS    2,1 =  -0.000061931760 Eh ...   

------------------------------------------------------------------------------------------------------------------------------------------------
    i   j  type :         EP        (%)         Dipole-            Cross              Charge        Charge          PNO in Mulliken            
                                                 Dipole           Excitation          Transfer      Transfer        population range            
                                                                                                                      <0.7  >0.7                
------------------------------------------------------------------------------------------------------------------------------------------------
    8     2  :     -0.000031896 ( 51.50)      -0.000030502     -0.000000154     -0.000001061     -0.000000180       1       4
    5     2  :     -0.000011608 ( 18.74)      -0.000011468     -0.000000055     -0.000000047     -0.000000038       0       4
    4     2  :     -0.000009911 ( 16.00)      -0.000009263     -0.000000055     -0.000000527     -0.000000066       1       2
    8     3  :     -0.000008517 ( 13.75)      -0.000008403     -0.000000042     -0.000000057     -0.000000015       0       2
----------------------------------------------------------------------------------------------------------------------------------------------------------
                   -0.000061932               -0.000059636     -0.000000305     -0.000001692     -0.000000299 
                                                 ( 96.29%)        (  0.49%)        (  2.73%)        (  0.48%)
----------------------------------------------------------------------------------------------------------------------------------------------------------

Overall summary of excitation mechanisms for this fragment pair:
  Total local dipole excitations    (i->a(i))(j->b(j)) -0.000059636 (96.293 per cent)
  Total Cross excitations           (i->a(j))(j->b(i)) -0.000000305 ( 0.493 per cent)
  Total Charge transfer excitations (i->a(i))(j->b(i)) -0.000001692 ( 2.732 per cent)
  Total Charge transfer excitations (i->a(j))(j->b(j)) -0.000000299 ( 0.483 per cent)
                                                       -----------------------------
  Sum                                                  -0.000061932
  Consistency check                                    -0.000061932
 done 
 
 
Summary Strong Pairs Energy Decomposition    
 
Intra fragment contributions: 
INTRA Fragment 1                       -0.288045597 
INTRA Fragment 2                       -0.288084852 

Charge transfer contributions: 
Charge Transfer 1 to 2                 -0.000001692 
Charge Transfer 2 to 1                 -0.000000299 

Dispersion contributions: 
Dispersion  2,1                        -0.000059941 

Singles contributions:                   
Singles energy                         -0.000001004 
 

------------------------------------------------- 
FINAL SUMMARY DLPNO-CCSD ENERGY DECOMPOSITION (Eh)
------------------------------------------------- 
 
Intrafragment REF. energy:                   
Intra fragment   1 (REF.)              -76.064302367     
Intra fragment   2 (REF.)              -76.064256195     

Interaction of fragments  2 and  1:  
Electrostatics (REF.)                  -0.001630939 
Exchange (REF.)                        -0.000028002 
Dispersion (strong pairs)              -0.000059941 
Dispersion (weak pairs)                -0.000061389 

Sum of non dispersive correlation terms: 
Non dispersion (strong pairs)          -0.576133444  
Non dispersion (weak pairs)            -0.002912797  

#Time for LED analysis ..       3.0 (sec)



--------------------------------------------------------------------------------
                                    TIMINGS
--------------------------------------------------------------------------------


Total execution time                   ...       53.780 sec

Localization of occupied MO's          ...        0.308 sec (  0.6%)
Fock Matrix Formation                  ...        1.455 sec (  2.7%)
Global overlap, Fock, MKN matrices     ...        0.328 sec (  0.6%)
Differential overlap integrals         ...        0.663 sec (  1.2%)
Organizing maps                        ...        0.042 sec (  0.1%)
RI 3-index integral generations        ...        2.947 sec (  5.5%)
RI-PNO integral transformation         ...        6.217 sec ( 11.6%)
Initial Guess                          ...        1.458 sec (  2.7%)
DIIS Solver                            ...        0.186 sec (  0.3%)
State Vector Update                    ...        0.002 sec (  0.0%)
Sigma-vector construction              ...       10.693 sec ( 19.9%)
  <D|H|D>(0-ext)                       ...        0.046 sec (  0.4% of sigma)
  <D|H|D>(2-ext Fock)                  ...        0.002 sec (  0.0% of sigma)
  <D|H|D>(2-ext)                       ...        0.367 sec (  3.4% of sigma)
  <D|H|D>(4-ext)                       ...        2.189 sec ( 20.5% of sigma)
  <D|H|D>(4-ext-corr)                  ...        6.343 sec ( 59.3% of sigma)
  CCSD doubles correction              ...        0.005 sec (  0.0% of sigma)
  <S|H|S>                              ...        0.167 sec (  1.6% of sigma)
  <S|H|D>(1-ext)                       ...        0.011 sec (  0.1% of sigma)
  <S|H|D>(3-ext)                       ...        0.039 sec (  0.4% of sigma)
  Fock-dressing                        ...        0.421 sec (  3.9% of sigma)
  Singles amplitudes                   ...        0.056 sec (  0.5% of sigma)
  (ik|jl)-dressing                     ...        0.053 sec (  0.5% of sigma)
  (ij|ab),(ia|jb)-dressing             ...        0.086 sec (  0.8% of sigma)
  Pair energies                        ...        0.002 sec (  0.0% of sigma)
Total Time for computing (T)           ...       26.478 sec ( 49.2% of ALL)
Local Energy Decomposition             ...        2.997 sec (  5.6% of ALL)


Maximum memory used throughout the entire MDCI-calculation: 408.6 MB

-------------------------   --------------------
FINAL SINGLE POINT ENERGY      -152.728325094256
-------------------------   --------------------


                            ***************************************
                            *     ORCA property calculations      *
                            ***************************************


  WARNING: The energy has been calculated at the MDCI level but the densities
           used in the property calculations are still SCF densities
           MDCI response densities have not been calculated 
           use %mdci Density linearized end
           or  %mdci Density unrelaxed end
           or  %mdci Density orbopt end

                                    ---------------------
                                    Active property flags
                                    ---------------------
   (+) Dipole Moment


------------------------------------------------------------------------------
                       ORCA ELECTRIC PROPERTIES CALCULATION
------------------------------------------------------------------------------

Dipole Moment Calculation                       ... on
Quadrupole Moment Calculation                   ... off
Polarizability Calculation                      ... off
GBWName                                         ... frag54.gbw
Electron density                                ... frag54.scfp
The origin for moment calculation is the CENTER OF MASS  = ( 2.367487,  2.967643 -1.789868)

-------------
DIPOLE MOMENT
-------------
                                X             Y             Z
Electronic contribution:      0.02119       0.04232       0.14372
Nuclear contribution   :     -0.20581      -0.20783      -0.74187
                        -----------------------------------------
Total Dipole Moment    :     -0.18462      -0.16551      -0.59815
                        -----------------------------------------
Magnitude (a.u.)       :      0.64751
Magnitude (Debye)      :      1.64583



--------------------
Rotational spectrum 
--------------------
 
Rotational constants in cm-1:     6.702298     0.089110     0.088686 
Rotational constants in MHz : 200929.839879  2671.446001  2658.749403 

 Dipole components along the rotational axes: 
x,y,z [a.u.] :    -0.357152    -0.399166    -0.363835 
x,y,z [Debye]:    -0.907809    -1.014598    -0.924794 

 

--------------------------------
SUGGESTED CITATIONS FOR THIS RUN
--------------------------------

Below you find a list of papers that are relevant to this ORCA run
We neither can nor want to force you to cite these paper, but we appreciate if you do
You receive ORCA, which is the product of a lot of hard work by many enthusiastic individuals, for free
The *only* thing we kindly ask in return is that you cite our papers,
We deeply appreciate it, if you show your appreciation for ORCA but *not* just citing the generic ORCA reference.

Please note that relegating all ORCA citations to the supporting information does *not* help us.
SI sections are not index - citations you put there will not count into our citation statistics
But we need these citations in order to attract the funding ressources that allow us to do what we are doing

Therefore, please consider citing at least a few of the papers listed below, if you are a happy ORCA user

In addition to the list printed below, the program has created the file frag54.bibtex that contains the list in bibtex format
In this format, you can import it easily in all common literature databanks and citation aid programs


List of essential papers. We consider these as the minimum necessary citations

  1. Neese,F.
     Software update: the ORCA program system, version 5.0
     WIRES Comput. Molec. Sci., 2022 12(1)e1606
     doi.org/10.1002/wcms.1606

List of papers to cite with high priority. The work reported in these papers was absolutely
necessary for this run to complete.
Our perspective: the developers of density functionals and basis sets usually get cited in chemistry papers
Good! But without the algorithms to do something with them, the functionals or basis sets would not do anything.
Hence, in our opinion, the algorithm design and method developments papers are equally worthy of getting cited

  1. Neese,F.
     An improvement of the resolution of the identity approximation for the formation of the Coulomb matrix
     J. Comp. Chem., 2003 24(14)1740-1747
     doi.org/10.1002/jcc.10318
  2. Neese,F.; Wennmohs,F.; Hansen,A.; Becker,U.
     Efficient, approximate and parallel Hartree-Fock and hybrid DFT calculations. A 'chain-of-spheres' algorithm for the Hartree-Fock exchange
     Chem. Phys., 2009 356(1-3)98-109
     doi.org/10.1016/j.chemphys.2008.10.036
  3. Neese,F.; Hansen,A.; Liakos,D.G.
     Efficient and accurate approximations to the local coupled cluster singles doubles method using a truncated pair natural orbital basis
     J. Chem. Phys., 2009 131 064103
     doi.org/10.1063/1.3173827
  4. Neese,F.; Wennmohs,F.; Hansen,A.
     Efficient and accurate local approximations to coupled-electron pair approaches: An attempt to revive the pair natural orbital method
     J. Chem. Phys., 2009 130 114108
     doi.org/10.1063/1.3086717
  5. Riplinger,C.; Neese,F.
     An efficient and near linear scaling pair natural orbital based local coupled cluster method
     J. Chem. Phys., 2013 138(3)Art. No. 034106
     doi.org/10.1063/1.4773581
  6. Riplinger,C.; Sandhoefer,B.; Hansen,A.; Neese,F.
     Natural triple excitations in local coupled cluster calculations with pair natural orbitals
     J. Chem. Phys., 2013 139(13)Art. No. 134101
     doi.org/10.1063/1.4821834
  7. Riplinger,C.; Pinski,P.; Becker,U.; Valeev,E.F.; Neese,F.
     Sparse maps-A systematic infrastructure for reduced-scaling electronic structure methods. II. Linear scaling domain based pair natural orbital coupled cluster theory
     J. Chem. Phys., 2016 144 
     doi.org/10.1063/1.4939030
  8. Schneider,W.B.; Bistoni,G.; Sparta,M.; Saitow,M.; Riplinger,C.; Auer,A.A.; Neese,F.
     Decomposition of Intermolecular Interaction Energies within the Local Pair Natural Orbital Coupled Cluster Framework
     J. Theo. Comp. Chem., 2016 12 4778-4792
     doi.org/10.1021/acs.jctc.6b00523
  9. Bistoni,G.; Riplinger,C.; Minenkov,Y.; Cavallo,L.; Auer,A.A.; Neese,F.
     Treating Subvalence Correlation Effects in Domain Based Pair Natural Orbital Coupled Cluster Calculations: An Out-of-the-Box Approach
     J. Theo. Comp. Chem., 2017 13 3220-3227
     doi.org/10.1021/acs.jctc.7b00352
 10. Guo,Y.; Riplinger,C.; Becker,U.; Liakos,D.G.; Minenkov,Y.; Cavallo,L.; Neese,F.
     Communication: An improved linear scaling perturbative triples correction for the domain based local pair-natural orbital based singles and doubles coupled cluster method DLPNO-CCSD(T)
     J. Chem. Phys., 2018 148 5
     doi.org/10.1063/1.5011798
 11. Helmich-Paris,B.; de Souza,B.; Neese,F.; Izsk,R.
     An improved chain of spheres for exchange algorithm
     J. Chem. Phys., 2021 155 104109
     doi.org/doi: 10.1063/5.0058766.

List of suggested additional citations. These are papers that are important in the 'surrounding' of 
of this run, or papers that preceded the highly important papers. If you like your results we are grateful for a citation.

  1. Izsak,R.; Neese,F.
     An overlap fitted chain of spheres exchange method
     J. Chem. Phys., 2011 135 144105
     doi.org/10.1063/1.3646921
  2. Izsak,R.; Hansen,A.; Neese,F.
     The resolution of identity and chain of spheres approximations for the LPNO-CCSD singles Fock term
     Molec. Phys., 2012 110 2413-2417
     doi.org/10.1080/00268976.2012.687466
  3. Neese,F.
     The ORCA program system
     WIRES Comput. Molec. Sci., 2012 2(1)73-78
     doi.org/10.1002/wcms.81
  4. Izsak,R.; Neese,F.; Klopper,W.
     Robust fitting techniques in the chain of spheres approximation to the Fock exchange: The role of the complementary space
     J. Chem. Phys., 2013 139 
     doi.org/10.1063/1.4819264
  5. Neese,F.
     Software update: the ORCA program system, version 4.0
     WIRES Comput. Molec. Sci., 2018 8(1)1-6
     doi.org/10.1002/wcms.1327
  6. Neese,F.; Wennmohs,F.; Becker,U.; Riplinger,C.
     The ORCA quantum chemistry program package
     J. Chem. Phys., 2020 152 Art. No. L224108
     doi.org/10.1063/5.0004608
  7. Bistoni,G.
     Finding chemical concepts in the Hilbert space: Coupled cluster analyses of noncovalent interactions
     WIRES Comput. Molec. Sci., 2020 10(3)e1442
     doi.org/10.1002/wcms.1442

Timings for individual modules:

Sum of individual times         ...       64.952 sec (=   1.083 min)
GTO integral calculation        ...        2.037 sec (=   0.034 min)   3.1 %
SCF iterations                  ...        8.551 sec (=   0.143 min)  13.2 %
MDCI module                     ...       54.365 sec (=   0.906 min)  83.7 %
                             ****ORCA TERMINATED NORMALLY****
TOTAL RUN TIME: 0 days 0 hours 1 minutes 5 seconds 656 msec