                                 *****************
                                 * O   R   C   A *
                                 *****************

                                            #,                                       
                                            ###                                      
                                            ####                                     
                                            #####                                    
                                            ######                                   
                                           ########,                                 
                                     ,,################,,,,,                         
                               ,,#################################,,                 
                          ,,##########################################,,             
                       ,#########################################, ''#####,          
                    ,#############################################,,   '####,        
                  ,##################################################,,,,####,       
                ,###########''''           ''''###############################       
              ,#####''   ,,,,##########,,,,          '''####'''          '####       
            ,##' ,,,,###########################,,,                        '##       
           ' ,,###''''                  '''############,,,                           
         ,,##''                                '''############,,,,        ,,,,,,###''
      ,#''                                            '''#######################'''  
     '                                                          ''''####''''         
             ,#######,   #######,   ,#######,      ##                                
            ,#'     '#,  ##    ##  ,#'     '#,    #''#        ######   ,####,        
            ##       ##  ##   ,#'  ##            #'  '#       #        #'  '#        
            ##       ##  #######   ##           ,######,      #####,   #    #        
            '#,     ,#'  ##    ##  '#,     ,#' ,#      #,         ##   #,  ,#        
             '#######'   ##     ##  '#######'  #'      '#     #####' # '####'        



                  #######################################################
                  #                        -***-                        #
                  #          Department of theory and spectroscopy      #
                  #    Directorship and core code : Frank Neese         #
                  #        Max Planck Institute fuer Kohlenforschung    #
                  #                Kaiser Wilhelm Platz 1               #
                  #                 D-45470 Muelheim/Ruhr               #
                  #                      Germany                        #
                  #                                                     #
                  #                  All rights reserved                #
                  #                        -***-                        #
                  #######################################################


                         Program Version 5.0  -  CURRENT   -
                                (GIT: $76ccee9ca$)
                ($2022-06-14 15:14:42 +0200 $)

                  !                     WARNING:                         !
                  !         This is a DEVELOPMENT version                !

                         (BUILD: $Mi 15. Jun 00:07:41 CEST 2022$)


 With contributions from (in alphabetic order):
   Daniel Aravena         : Magnetic Suceptibility
   Michael Atanasov       : Ab Initio Ligand Field Theory (pilot matlab implementation)
   Alexander A. Auer      : GIAO ZORA, VPT2 properties, NMR spectrum
   Ute Becker             : Parallelization
   Giovanni Bistoni       : ED, misc. LED, open-shell LED, HFLD
   Martin Brehm           : Molecular dynamics
   Dmytro Bykov           : SCF Hessian
   Vijay G. Chilkuri      : MRCI spin determinant printing, contributions to CSF-ICE
   Dipayan Datta          : RHF DLPNO-CCSD density
   Achintya Kumar Dutta   : EOM-CC, STEOM-CC
   Dmitry Ganyushin       : Spin-Orbit,Spin-Spin,Magnetic field MRCI
   Miquel Garcia          : C-PCM and meta-GGA Hessian, CC/C-PCM, Gaussian charge scheme
   Yang Guo               : DLPNO-NEVPT2, F12-NEVPT2, CIM, IAO-localization
   Andreas Hansen         : Spin unrestricted coupled pair/coupled cluster methods
   Benjamin Helmich-Paris : MC-RPA, TRAH-SCF, COSX integrals
   Lee Huntington         : MR-EOM, pCC
   Robert Izsak           : Overlap fitted RIJCOSX, COSX-SCS-MP3, EOM
   Marcus Kettner         : VPT2
   Christian Kollmar      : KDIIS, OOCD, Brueckner-CCSD(T), CCSD density, CASPT2, CASPT2-K, improved NEVPT2
   Simone Kossmann        : Meta GGA functionals, TD-DFT gradient, OOMP2, MP2 Hessian
   Martin Krupicka        : Initial AUTO-CI
   Lucas Lang             : DCDCAS
   Marvin Lechner         : AUTO-CI (C++ implementation), FIC-MRCC
   Dagmar Lenk            : GEPOL surface, SMD
   Dimitrios Liakos       : Extrapolation schemes; Compound Job, initial MDCI parallelization
   Dimitrios Manganas     : Further ROCIS development; embedding schemes
   Dimitrios Pantazis     : SARC Basis sets
   Anastasios Papadopoulos: AUTO-CI, single reference methods and gradients
   Taras Petrenko         : DFT Hessian,TD-DFT gradient, ASA, ECA, R-Raman, ABS, FL, XAS/XES, NRVS
   Peter Pinski           : DLPNO-MP2, DLPNO-MP2 Gradient
   Christoph Reimann      : Effective Core Potentials
   Marius Retegan         : Local ZFS, SOC
   Christoph Riplinger    : Optimizer, TS searches, QM/MM, DLPNO-CCSD(T), (RO)-DLPNO pert. Triples
   Tobias Risthaus        : Range-separated hybrids, TD-DFT gradient, RPA, STAB
   Michael Roemelt        : Original ROCIS implementation
   Masaaki Saitow         : Open-shell DLPNO-CCSD energy and density
   Barbara Sandhoefer     : DKH picture change effects
   Avijit Sen             : IP-ROCIS
   Kantharuban Sivalingam : CASSCF convergence, NEVPT2, FIC-MRCI
   Bernardo de Souza      : ESD, SOC TD-DFT
   Georgi Stoychev        : AutoAux, RI-MP2 NMR, DLPNO-MP2 response
   Willem Van den Heuvel  : Paramagnetic NMR
   Boris Wezisla          : Elementary symmetry handling
   Frank Wennmohs         : Technical directorship


 We gratefully acknowledge several colleagues who have allowed us to
 interface, adapt or use parts of their codes:
   Stefan Grimme, W. Hujo, H. Kruse, P. Pracht,  : VdW corrections, initial TS optimization,
                  C. Bannwarth, S. Ehlert          DFT functionals, gCP, sTDA/sTD-DF
   Ed Valeev, F. Pavosevic, A. Kumar             : LibInt (2-el integral package), F12 methods
   Garnet Chan, S. Sharma, J. Yang, R. Olivares  : DMRG
   Ulf Ekstrom                                   : XCFun DFT Library
   Mihaly Kallay                                 : mrcc  (arbitrary order and MRCC methods)
   Jiri Pittner, Ondrej Demel                    : Mk-CCSD
   Frank Weinhold                                : gennbo (NPA and NBO analysis)
   Christopher J. Cramer and Donald G. Truhlar   : smd solvation model
   Lars Goerigk                                  : TD-DFT with DH, B97 family of functionals
   V. Asgeirsson, H. Jonsson                     : NEB implementation
   FAccTs GmbH                                   : IRC, NEB, NEB-TS, DLPNO-Multilevel, CI-OPT
                                                   MM, QMMM, 2- and 3-layer-ONIOM, Crystal-QMMM,
                                                   LR-CPCM, SF, NACMEs, symmetry and pop. for TD-DFT,
                                                   nearIR, NL-DFT gradient (VV10), updates on ESD,
                                                   ML-optimized integration grids
   S Lehtola, MJT Oliveira, MAL Marques          : LibXC Library
   Liviu Ungur et al                             : ANISO software


 Your calculation uses the libint2 library for the computation of 2-el integrals
 For citations please refer to: http://libint.valeyev.net

 Your ORCA version has been built with support for libXC version: 5.2.2
 For citations please refer to: https://tddft.org/programs/libxc/

 This ORCA versions uses:
   CBLAS   interface :  Fast vector & matrix operations
   LAPACKE interface :  Fast linear algebra routines
   SCALAPACK package :  Parallel linear algebra routines
   Shared memory     :  Shared parallel matrices


================================================================================

----- Orbital basis set information -----
Your calculation utilizes the basis: aug-cc-pVQZ 
    H, B-Ne : Obtained from the ccRepo (grant-hill.group.shef.ac.uk/ccrepo) Feb. 2017
              R. A. Kendall, T. H. Dunning, Jr., R. J. Harrison, J. Chem. Phys. 96, 6796 (1992)
         He : Obtained from the ccRepo (grant-hill.group.shef.ac.uk/ccrepo) Feb. 2017
              D. E. Woon, T. H. Dunning, Jr., J. Chem. Phys. 100, 2975 (1994)
  Li-Be, Na : Obtained from the ccRepo (grant-hill.group.shef.ac.uk/ccrepo) Feb. 2017
              B. P. Prascher, D. E. Woon, K. A. Peterson, T. H. Dunning, Jr., A. K. Wilson, Theor. Chem. Acc. 128, 69 (2011)
         Mg : Obtained from the Peterson Research Group Website (tyr0.chem.wsu.edu/~kipeters) Feb. 2017
              B. P. Prascher, D. E. Woon, K. A. Peterson, T. H. Dunning, Jr., A. K. Wilson, Theor. Chem. Acc. 128, 69 (2011)
      Al-Ar : Obtained from the ccRepo (grant-hill.group.shef.ac.uk/ccrepo) Feb. 2017
              D. E. Woon, T. H. Dunning, Jr., J. Chem. Phys. 98, 1358 (1993)
      Sc-Zn : Obtained from the ccRepo (grant-hill.group.shef.ac.uk/ccrepo) Feb. 2017
              N. B. Balabanov, K. A. Peterson, J. Chem. Phys. 123, 064107 (2005)
              N. B. Balabanov, K. A. Peterson, J. Chem. Phys. 125, 074110 (2006)
      Ga-Kr : Obtained from the ccRepo (grant-hill.group.shef.ac.uk/ccrepo) Feb. 2017
              A. K. Wilson, D. E. Woon, K. A. Peterson, T. H. Dunning, Jr., J. Chem. Phys. 110, 7667 (1999)

----- AuxJ basis set information -----
----- AuxC basis set information -----
================================================================================
                                        WARNINGS
                       Please study these warnings very carefully!
================================================================================


WARNING: Post HF methods need fully converged wavefunctions
  ===> : Setting SCFConvForced true
         You can overwrite this default with %scf ConvForced false 


WARNING: MDCI localization with Augmented Hessian Foster-Boys
  ===> : Switching off randomization!

INFO   : the flag for use of the SHARK integral package has been found!

================================================================================
                                       INPUT FILE
================================================================================
NAME = frag21.inp
|  1> ! DLPNO-CCSD(T1) aug-cc-pVQZ DEFGRID3 RIJCOSX def2/J aug-cc-pV5Z/C verytightscf TightPNO LED
|  2> 
|  3> %pal nprocs 16 end
|  4> %maxcore 6000
|  5> %scf maxiter 999 end
|  6> %basis auxj "autoaux" auxc "autoaux" autoauxlmax true end
|  7> %mdci TCutPNO 1e-6 printlevel 3 end
|  8> 
|  9> * xyz 0 1
| 10> O(1)     2.482542995    -1.248988714     0.449488905
| 11> H(1)     2.616828786    -1.798226083    -0.326968465
| 12> H(1)     2.828107886    -0.362220961     0.204648083
| 13> O(2)    -1.753042425     0.416462959     0.356105280
| 14> H(2)    -1.120933301    -0.183098298     0.812596940
| 15> H(2)    -2.593310567    -0.048459739     0.359102074
| 16> *
| 17> 
| 18>                          ****END OF INPUT****
================================================================================

                       ****************************
                       * Single Point Calculation *
                       ****************************

---------------------------------
CARTESIAN COORDINATES (ANGSTROEM)
---------------------------------
  O      2.482543   -1.248989    0.449489
  H      2.616829   -1.798226   -0.326968
  H      2.828108   -0.362221    0.204648
  O     -1.753042    0.416463    0.356105
  H     -1.120933   -0.183098    0.812597
  H     -2.593311   -0.048460    0.359102

----------------------------
CARTESIAN COORDINATES (A.U.)
----------------------------
  NO LB      ZA    FRAG     MASS         X           Y           Z
   0 O     8.0000    1    15.999    4.691326   -2.360247    0.849411
   1 H     1.0000    1     1.008    4.945090   -3.398155   -0.617881
   2 H     1.0000    1     1.008    5.344349   -0.684498    0.386729
   3 O     8.0000    2    15.999   -3.312770    0.787001    0.672941
   4 H     1.0000    2     1.008   -2.118257   -0.346006    1.535586
   5 H     1.0000    2     1.008   -4.900647   -0.091576    0.678605

----------------------------------------------
CARTESIAN COORDINATES OF FRAGMENTS (ANGSTROEM)
----------------------------------------------

 FRAGMENT 1 
  O     2.482543   -1.248989    0.449489
  H     2.616829   -1.798226   -0.326968
  H     2.828108   -0.362221    0.204648

 FRAGMENT 2 
  O    -1.753042    0.416463    0.356105
  H    -1.120933   -0.183098    0.812597
  H    -2.593311   -0.048460    0.359102

--------------------------------
INTERNAL COORDINATES (ANGSTROEM)
--------------------------------
 O      0   0   0     0.000000000000     0.00000000     0.00000000
 H      1   0   0     0.960510493747     0.00000000     0.00000000
 H      1   2   0     0.982710114820   105.39205163     0.00000000
 O      1   2   3     4.552211948782   108.82642770    94.87753579
 H      4   1   2     0.983575254462    33.84975301   112.85504559
 H      4   1   2     0.960319033629   129.56418753    60.66033394

---------------------------
INTERNAL COORDINATES (A.U.)
---------------------------
 O      0   0   0     0.000000000000     0.00000000     0.00000000
 H      1   0   0     1.815101781939     0.00000000     0.00000000
 H      1   2   0     1.857052986045   105.39205163     0.00000000
 O      1   2   3     8.602433886762   108.82642770    94.87753579
 H      4   1   2     1.858687863034    33.84975301   112.85504559
 H      4   1   2     1.814739974751   129.56418753    60.66033394

---------------------
BASIS SET INFORMATION
---------------------
There are 2 groups of distinct atoms

 Group   1 Type O   : 22s7p4d3f2g contracted to 6s5p4d3f2g pattern {991111/31111/1111/111/11}
 Group   2 Type H   : 7s4p3d2f contracted to 5s4p3d2f pattern {31111/1111/111/11}

Atom   0O    basis set group =>   1
Atom   1H    basis set group =>   2
Atom   2H    basis set group =>   2
Atom   3O    basis set group =>   1
Atom   4H    basis set group =>   2
Atom   5H    basis set group =>   2
---------------------------------
AUXILIARY/J BASIS SET INFORMATION
---------------------------------
There are 2 groups of distinct atoms

 Group   1 Type O   : 16s14p13d7f7g5h3i3j contracted to 16s14p13d7f7g5h3i3j pattern {1111111111111111/11111111111111/1111111111111/1111111/1111111/11111/111/111}
 Group   2 Type H   : 15s7p6d5f5g4h3i contracted to 15s7p6d5f5g4h3i pattern {111111111111111/1111111/111111/11111/11111/1111/111}

Atom   0O    basis set group =>   1
Atom   1H    basis set group =>   2
Atom   2H    basis set group =>   2
Atom   3O    basis set group =>   1
Atom   4H    basis set group =>   2
Atom   5H    basis set group =>   2
---------------------------------
AUXILIARY/C BASIS SET INFORMATION
---------------------------------
There are 2 groups of distinct atoms

 Group   1 Type O   : 16s14p13d7f7g5h3i3j contracted to 16s14p13d7f7g5h3i3j pattern {1111111111111111/11111111111111/1111111111111/1111111/1111111/11111/111/111}
 Group   2 Type H   : 15s7p6d5f5g4h3i contracted to 15s7p6d5f5g4h3i pattern {111111111111111/1111111/111111/11111/11111/1111/111}

Atom   0O    basis set group =>   1
Atom   1H    basis set group =>   2
Atom   2H    basis set group =>   2
Atom   3O    basis set group =>   1
Atom   4H    basis set group =>   2
Atom   5H    basis set group =>   2

Checking for AutoStart:
The File: frag21.gbw exists
Trying to determine its content:
     ... Fine, the file contains calculation information
     ... Fine, the calculation information was read
     ... Fine, the file contains a basis set
     ... Fine, the basis set was read
     ... Fine, the file contains a geometry
     ... Fine, the geometry was read
     ... Fine, the file contains a set of orbitals
     ... Fine, the orbitals can be read
     => possible old guess file was deleted
     => GBW file was renamed to GES file
     => GES file is set as startup file
     => Guess is set to MORead
     ... now leaving AutoStart



           ************************************************************
           *        Program running with 16 parallel MPI-processes    *
           *              working on a common directory               *
           ************************************************************
------------------------------------------------------------------------------
                           ORCA GTO INTEGRAL CALCULATION
                           -- RI-GTO INTEGRALS CHOSEN --
------------------------------------------------------------------------------
------------------------------------------------------------------------------
                   ___                                                        
                  /   \      - P O W E R E D   B Y -                         
                 /     \                                                     
                 |  |  |   _    _      __       _____    __    __             
                 |  |  |  | |  | |    /  \     |  _  \  |  |  /  |          
                  \  \/   | |  | |   /    \    | | | |  |  | /  /          
                 / \  \   | |__| |  /  /\  \   | |_| |  |  |/  /          
                |  |  |   |  __  | /  /__\  \  |    /   |      \           
                |  |  |   | |  | | |   __   |  |    \   |  |\   \          
                \     /   | |  | | |  |  |  |  | |\  \  |  | \   \       
                 \___/    |_|  |_| |__|  |__|  |_| \__\ |__|  \__/        
                                                                              
                      - O R C A' S   B I G   F R I E N D -                    
                                      &                                       
                       - I N T E G R A L  F E E D E R -                       
                                                                              
 v1 FN, 2020, v2 2021                                                         
------------------------------------------------------------------------------


Reading SHARK input file frag21.SHARKINP.tmp ... ok
Calculating pre-screening integrals         ... done (  0.0 sec) Dimension = 110
Calculating pre-screening integrals (ORCA)  ... done (  0.1 sec) Dimension = 96
Organizing shell pair data                  ... done (  0.1 sec)
Shell pair information
Total number of shell pairs                 ...      6105
Shell pairs after pre-screening             ...      5151
Total number of primitive shell pairs       ...      7521
Primitive shell pairs kept                  ...      6039
          la=0 lb=0:    867 shell pairs
          la=1 lb=0:   1010 shell pairs
          la=1 lb=1:    318 shell pairs
          la=2 lb=0:    761 shell pairs
          la=2 lb=1:    461 shell pairs
          la=2 lb=2:    186 shell pairs
          la=3 lb=0:    537 shell pairs
          la=3 lb=1:    326 shell pairs
          la=3 lb=2:    245 shell pairs
          la=3 lb=3:     93 shell pairs
          la=4 lb=0:    136 shell pairs
          la=4 lb=1:     88 shell pairs
          la=4 lb=2:     66 shell pairs
          la=4 lb=3:     48 shell pairs
          la=4 lb=4:      9 shell pairs

Calculating one electron integrals          ... done (  0.0 sec)
Calculating RI/J V-Matrix + Cholesky decomp.... done (  0.6 sec)
Calculating RI/C V-Matrix + Cholesky decomp.... done (  0.6 sec)
Calculating Nuclear repulsion               ... done (  0.0 sec) ENN=     29.701758500683 Eh

SHARK setup successfully completed in   1.6 seconds

Maximum memory used throughout the entire GTOINT-calculation: 93.9 MB


           ************************************************************
           *        Program running with 16 parallel MPI-processes    *
           *              working on a common directory               *
           ************************************************************
-------------------------------------------------------------------------------
                                 ORCA SCF
-------------------------------------------------------------------------------

------------
SCF SETTINGS
------------
Hamiltonian:
 Ab initio Hamiltonian  Method          .... Hartree-Fock(GTOs)
 RI-approximation to the Coulomb term is turned on
   Number of AuxJ basis functions       .... 1664
   RIJ-COSX (HFX calculated with COS-X)).... on


General Settings:
 Integral files         IntName         .... frag21
 Hartree-Fock type      HFTyp           .... RHF
 Total Charge           Charge          ....    0
 Multiplicity           Mult            ....    1
 Number of Electrons    NEL             ....   20
 Basis Dimension        Dim             ....  344
 Nuclear Repulsion      ENuc            ....     29.7017585007 Eh

Convergence Acceleration:
 DIIS                   CNVDIIS         .... on
   Start iteration      DIISMaxIt       ....    12
   Startup error        DIISStart       ....  0.200000
   # of expansion vecs  DIISMaxEq       ....     5
   Bias factor          DIISBfac        ....   1.050
   Max. coefficient     DIISMaxC        ....  10.000
 Trust-Rad. Augm. Hess. CNVTRAH         .... auto
   Auto Start mean grad. ratio tolernc. ....  1.125000
   Auto Start start iteration           ....     1
   Auto Start num. interpolation iter.  ....    10
   Max. Number of Micro iterations      ....    24
   Max. Number of Macro iterations      .... Maxiter - #DIIS iter
   Max. Number of back steps            ....     5
   Number of Davidson start vectors     ....     2
   Converg. threshold I  (grad. norm)   ....   2.000e-06
   Converg. threshold II (energy diff.) ....   1.000e-09
   Grad. Scal. Fac. for Micro threshold ....   0.100
   Minimum threshold for Micro iter.    ....   1.000e-02
   NR start threshold (gradient norm)   ....   1.000e-04
   Initial trust radius                 ....   0.400
   Minimum AH scaling param. (alpha)    ....   1.000
   Maximum AH scaling param. (alpha)    .... 1000.000
   Inactive MOs                         .... canonicalized
   Orbital update algorithm             .... Taylor
   White noise on init. David. guess    .... on
   Maximum white noise                  ....   0.010
   Quad. conv. algorithm                .... NR
   Preconditioner                       .... approx. diagonal
 SOSCF                  CNVSOSCF        .... on
   Start iteration      SOSCFMaxIt      ....   150
   Startup grad/error   SOSCFStart      ....  0.003300
 Level Shifting         CNVShift        .... on
   Level shift para.    LevelShift      ....    0.2500
   Turn off err/grad.   ShiftErr        ....    0.0010
 Zerner damping         CNVZerner       .... off
 Static damping         CNVDamp         .... on
   Fraction old density DampFac         ....    0.7000
   Max. Damping (<1)    DampMax         ....    0.9800
   Min. Damping (>=0)   DampMin         ....    0.0000
   Turn off err/grad.   DampErr         ....    0.1000

SCF Procedure:
 Maximum # iterations   MaxIter         ....   999
 SCF integral mode      SCFMode         .... Direct
   Integral package                     .... SHARK and LIBINT hybrid scheme
 Reset frequency        DirectResetFreq ....    20
 Integral Threshold     Thresh          ....  1.000e-12 Eh
 Primitive CutOff       TCut            ....  1.000e-14 Eh

Convergence Tolerance:
 Convergence Check Mode ConvCheckMode   .... Total+1el-Energy
 Convergence forced     ConvForced      .... 1
 Energy Change          TolE            ....  1.000e-09 Eh
 1-El. energy change                    ....  1.000e-06 Eh
 Orbital Gradient       TolG            ....  2.000e-06
 Orbital Rotation angle TolX            ....  2.000e-06
 DIIS Error             TolErr          ....  1.000e-08


Diagonalization of the overlap matrix:
Smallest eigenvalue                        ... 8.044e-05
Time for diagonalization                   ...    0.015 sec
Threshold for overlap eigenvalues          ... 1.000e-08
Number of eigenvalues below threshold      ... 0
Time for construction of square roots      ...    0.011 sec
Total time needed                          ...    0.028 sec

---------------------
INITIAL GUESS: MOREAD
---------------------
Guess MOs are being read from file: frag21.ges
Input Geometry matches current geometry (good)
Atom 0: N(Shells)= 20 and 14 - projection required
Input basis set needs projection
NBasis(read)= 184
NBasis(calc)= 344
Basis set overlap was calculated
Using GuessMode=FMatrix for the initial guess
C*T matrix was formed
Effective Fockian was calculated
Effective Fockian was diagonalized
Initial density was built
                      ------------------
                      INITIAL GUESS DONE (   0.0 sec)
                      ------------------
--------------------
COSX GRID GENERATION
--------------------

GRIDX 1
-------
General Integration Accuracy     IntAcc      ... 4.020
Radial Grid Type                 RadialGrid  ... OptM3 with GC (2021)
Angular Grid (max. ang.)         AngularGrid ... 2 (Lebedev-110)
Angular grid pruning method      GridPruning ... 4 (adaptive)
Weight generation scheme         WeightScheme... Becke
Basis function cutoff            BFCut       ... 1.0000e-12
Integration weight cutoff        WCut        ... 1.0000e-14
Angular grids for H and He will be reduced by one unit
Partially contracted basis set               ... on
Rotationally invariant grid construction     ... off

Total number of grid points                  ...     8266
Total number of batches                      ...      132
Average number of points per batch           ...       62
Average number of grid points per atom       ...     1378
UseSFitting                                  ... on

GRIDX 2
-------
General Integration Accuracy     IntAcc      ... 4.338
Radial Grid Type                 RadialGrid  ... OptM3 with GC (2021)
Angular Grid (max. ang.)         AngularGrid ... 3 (Lebedev-194)
Angular grid pruning method      GridPruning ... 4 (adaptive)
Weight generation scheme         WeightScheme... Becke
Basis function cutoff            BFCut       ... 1.0000e-12
Integration weight cutoff        WCut        ... 1.0000e-14
Angular grids for H and He will be reduced by one unit
Partially contracted basis set               ... on
Rotationally invariant grid construction     ... off

Total number of grid points                  ...    18939
Total number of batches                      ...      299
Average number of points per batch           ...       63
Average number of grid points per atom       ...     3156
UseSFitting                                  ... on

GRIDX 3
-------
General Integration Accuracy     IntAcc      ... 4.871
Radial Grid Type                 RadialGrid  ... OptM3 with GC (2021)
Angular Grid (max. ang.)         AngularGrid ... 4 (Lebedev-302)
Angular grid pruning method      GridPruning ... 4 (adaptive)
Weight generation scheme         WeightScheme... Becke
Basis function cutoff            BFCut       ... 1.0000e-12
Integration weight cutoff        WCut        ... 1.0000e-14
Angular grids for H and He will be reduced by one unit
Partially contracted basis set               ... on
Rotationally invariant grid construction     ... off

Total number of grid points                  ...    36983
Total number of batches                      ...      581
Average number of points per batch           ...       63
Average number of grid points per atom       ...     6164
UseSFitting                                  ... on

Time for X-Grid setup             =    0.324 sec

 re-compute Schwartz prescreening matrix in partially contracted basis (1) ...done (   0.080 sec)
--------------
SCF ITERATIONS
--------------
ITER       Energy         Delta-E        Max-DP      RMS-DP      [F,P]     Damp
               ***  Starting incremental Fock matrix formation  ***
  0   -152.1290253797   0.000000000000 0.00692700  0.00015746  0.0168547 0.7000
                      *** Initiating the SOSCF procedure ***
                      *** Re-Reading the Fockian *** 
                      *** Removing any level shift *** 
ITER       Energy         Delta-E        Max-DP      RMS-DP   
  1   -152.1293625581  -0.000337178361 0.01883438  0.00039989
               *** Restarting incremental Fock matrix formation ***
  2   -152.1302299245  -0.000867366391 0.00253495  0.00004997
  3   -152.1302340043  -0.000004079766 0.00043117  0.00000838
  4   -152.1302340628  -0.000000058518 0.00015364  0.00000299
  5   -152.1302342242  -0.000000161454 0.00001499  0.00000026
  6   -152.1302342282  -0.000000003932 0.00000441  0.00000008
  7   -152.1302342264   0.000000001806 0.00000147  0.00000002
                 **** Energy Check signals convergence ****
              ***Rediagonalizing the Fockian in SOSCF/NRSCF***

               *****************************************************
               *                     SUCCESS                       *
               *           SCF CONVERGED AFTER   8 CYCLES          *
               *****************************************************

Old exchange energy                            =    -17.861273084 Eh
New exchange energy                            =    -17.861256551 Eh
Exchange energy change after final integration =      0.000016533 Eh
Total energy after final integration           =   -152.130217693 Eh
Final COS-X integration done in                =     1.282 sec

----------------
TOTAL SCF ENERGY
----------------

Total Energy       :         -152.13021769 Eh           -4139.67368 eV

Components:
Nuclear Repulsion  :           29.70175850 Eh             808.22594 eV
Electronic Energy  :         -181.83197619 Eh           -4947.89962 eV
One Electron Energy:         -268.83290018 Eh           -7315.31512 eV
Two Electron Energy:           87.00092399 Eh            2367.41550 eV
Max COSX asymmetry :            0.00000081 Eh               0.00002 eV

Virial components:
Potential Energy   :         -304.00241773 Eh           -8272.32634 eV
Kinetic Energy     :          151.87220003 Eh            4132.65266 eV
Virial Ratio       :            2.00169891


---------------
SCF CONVERGENCE
---------------

  Last Energy change         ...    4.3173e-10  Tolerance :   1.0000e-09
  Last MAX-Density change    ...    1.1102e-15  Tolerance :   1.0000e-08
  Last RMS-Density change    ...    7.6264e-18  Tolerance :   1.0000e-09

             **** THE GBW FILE WAS UPDATED (frag21.gbw) ****
             **** DENSITY frag21.scfp WAS UPDATED ****
             **** ENERGY FILE WAS UPDATED (frag21.en.tmp) ****
             **** THE GBW FILE WAS UPDATED (frag21.gbw) ****
             **** DENSITY frag21.scfp WAS UPDATED ****
             **** ENERGY FILE WAS UPDATED (frag21.en.tmp) ****
----------------
ORBITAL ENERGIES
----------------

  NO   OCC          E(Eh)            E(eV) 
   0   2.0000     -20.570339      -559.7474 
   1   2.0000     -20.560910      -559.4908 
   2   2.0000      -1.348703       -36.7001 
   3   2.0000      -1.339050       -36.4374 
   4   2.0000      -0.715227       -19.4623 
   5   2.0000      -0.705582       -19.1999 
   6   2.0000      -0.584578       -15.9072 
   7   2.0000      -0.574871       -15.6430 
   8   2.0000      -0.512954       -13.9582 
   9   2.0000      -0.503329       -13.6963 
  10   0.0000       0.024052         0.6545 
  11   0.0000       0.036516         0.9936 
  12   0.0000       0.043585         1.1860 
  13   0.0000       0.059395         1.6162 
  14   0.0000       0.110657         3.0111 
  15   0.0000       0.120907         3.2901 
  16   0.0000       0.134997         3.6734 
  17   0.0000       0.148375         4.0375 
  18   0.0000       0.153021         4.1639 
  19   0.0000       0.154647         4.2082 
  20   0.0000       0.169243         4.6053 
  21   0.0000       0.176188         4.7943 
  22   0.0000       0.182559         4.9677 
  23   0.0000       0.186220         5.0673 
  24   0.0000       0.202252         5.5036 
  25   0.0000       0.210497         5.7279 
  26   0.0000       0.230530         6.2730 
  27   0.0000       0.233463         6.3528 
  28   0.0000       0.260886         7.0991 
  29   0.0000       0.267600         7.2818 
  30   0.0000       0.291135         7.9222 
  31   0.0000       0.299194         8.1415 
  32   0.0000       0.319972         8.7069 
  33   0.0000       0.343967         9.3598 
  34   0.0000       0.360951         9.8220 
  35   0.0000       0.373085        10.1522 
  36   0.0000       0.388235        10.5644 
  37   0.0000       0.415369        11.3028 
  38   0.0000       0.465615        12.6700 
  39   0.0000       0.478622        13.0240 
  40   0.0000       0.508149        13.8274 
  41   0.0000       0.528709        14.3869 
  42   0.0000       0.539677        14.6854 
  43   0.0000       0.545912        14.8550 
  44   0.0000       0.551188        14.9986 
  45   0.0000       0.565093        15.3770 
  46   0.0000       0.568071        15.4580 
  47   0.0000       0.578694        15.7471 
  48   0.0000       0.596500        16.2316 
  49   0.0000       0.615234        16.7414 
  50   0.0000       0.634096        17.2546 
  51   0.0000       0.640635        17.4326 
  52   0.0000       0.650197        17.6928 
  53   0.0000       0.661135        17.9904 
  54   0.0000       0.668146        18.1812 
  55   0.0000       0.677775        18.4432 
  56   0.0000       0.693923        18.8826 
  57   0.0000       0.696702        18.9582 
  58   0.0000       0.711462        19.3599 
  59   0.0000       0.717771        19.5315 
  60   0.0000       0.731979        19.9182 
  61   0.0000       0.739355        20.1189 
  62   0.0000       0.752846        20.4860 
  63   0.0000       0.761051        20.7093 
  64   0.0000       0.771342        20.9893 
  65   0.0000       0.791095        21.5268 
  66   0.0000       0.797664        21.7056 
  67   0.0000       0.802727        21.8433 
  68   0.0000       0.809264        22.0212 
  69   0.0000       0.828434        22.5428 
  70   0.0000       0.845017        22.9941 
  71   0.0000       0.863924        23.5086 
  72   0.0000       0.866838        23.5879 
  73   0.0000       0.897672        24.4269 
  74   0.0000       0.915287        24.9062 
  75   0.0000       0.967124        26.3168 
  76   0.0000       0.980009        26.6674 
  77   0.0000       1.026299        27.9270 
  78   0.0000       1.134351        30.8672 
  79   0.0000       1.150698        31.3121 
  80   0.0000       1.157194        31.4889 
  81   0.0000       1.167080        31.7579 
  82   0.0000       1.215158        33.0661 
  83   0.0000       1.224466        33.3194 
  84   0.0000       1.335104        36.3300 
  85   0.0000       1.372577        37.3497 
  86   0.0000       1.422050        38.6959 
  87   0.0000       1.439747        39.1775 
  88   0.0000       1.467006        39.9193 
  89   0.0000       1.498700        40.7817 
  90   0.0000       1.505535        40.9677 
  91   0.0000       1.515486        41.2385 
  92   0.0000       1.518539        41.3215 
  93   0.0000       1.523914        41.4678 
  94   0.0000       1.535866        41.7930 
  95   0.0000       1.552515        42.2461 
  96   0.0000       1.556696        42.3598 
  97   0.0000       1.577774        42.9334 
  98   0.0000       1.604979        43.6737 
  99   0.0000       1.615225        43.9525 
 100   0.0000       1.620281        44.0901 
 101   0.0000       1.635238        44.4971 
 102   0.0000       1.644149        44.7396 
 103   0.0000       1.646679        44.8084 
 104   0.0000       1.661157        45.2024 
 105   0.0000       1.671574        45.4858 
 106   0.0000       1.686627        45.8955 
 107   0.0000       1.704408        46.3793 
 108   0.0000       1.711869        46.5823 
 109   0.0000       1.720311        46.8120 
 110   0.0000       1.730805        47.0976 
 111   0.0000       1.746859        47.5345 
 112   0.0000       1.752395        47.6851 
 113   0.0000       1.761990        47.9462 
 114   0.0000       1.770992        48.1912 
 115   0.0000       1.781189        48.4686 
 116   0.0000       1.788789        48.6754 
 117   0.0000       1.804227        49.0955 
 118   0.0000       1.815554        49.4037 
 119   0.0000       1.822379        49.5894 
 120   0.0000       1.848082        50.2889 
 121   0.0000       1.863515        50.7088 
 122   0.0000       1.887106        51.3508 
 123   0.0000       1.895531        51.5800 
 124   0.0000       1.904418        51.8219 
 125   0.0000       1.911625        52.0180 
 126   0.0000       1.930084        52.5203 
 127   0.0000       1.951238        53.0959 
 128   0.0000       1.973205        53.6936 
 129   0.0000       1.992465        54.2177 
 130   0.0000       2.016415        54.8694 
 131   0.0000       2.031947        55.2921 
 132   0.0000       2.038452        55.4691 
 133   0.0000       2.045663        55.6653 
 134   0.0000       2.073860        56.4326 
 135   0.0000       2.085360        56.7455 
 136   0.0000       2.121118        57.7186 
 137   0.0000       2.187199        59.5167 
 138   0.0000       2.220435        60.4211 
 139   0.0000       2.230765        60.7022 
 140   0.0000       2.240063        60.9552 
 141   0.0000       2.253724        61.3270 
 142   0.0000       2.301236        62.6198 
 143   0.0000       2.324184        63.2443 
 144   0.0000       2.453030        66.7503 
 145   0.0000       2.475771        67.3692 
 146   0.0000       2.615381        71.1681 
 147   0.0000       2.624533        71.4172 
 148   0.0000       2.647016        72.0290 
 149   0.0000       2.700789        73.4922 
 150   0.0000       2.873922        78.2034 
 151   0.0000       2.895199        78.7824 
 152   0.0000       2.939170        79.9789 
 153   0.0000       2.955281        80.4173 
 154   0.0000       2.990404        81.3730 
 155   0.0000       3.024140        82.2910 
 156   0.0000       3.032578        82.5206 
 157   0.0000       3.056962        83.1842 
 158   0.0000       3.064935        83.4011 
 159   0.0000       3.074973        83.6743 
 160   0.0000       3.079928        83.8091 
 161   0.0000       3.108879        84.5969 
 162   0.0000       3.265801        88.8670 
 163   0.0000       3.272928        89.0609 
 164   0.0000       3.286510        89.4305 
 165   0.0000       3.293746        89.6274 
 166   0.0000       3.295849        89.6846 
 167   0.0000       3.345634        91.0393 
 168   0.0000       3.498127        95.1889 
 169   0.0000       3.521515        95.8253 
 170   0.0000       3.611939        98.2859 
 171   0.0000       3.619507        98.4918 
 172   0.0000       3.642575        99.1195 
 173   0.0000       3.659955        99.5924 
 174   0.0000       3.692391       100.4751 
 175   0.0000       3.706521       100.8596 
 176   0.0000       3.712593       101.0248 
 177   0.0000       3.718095       101.1745 
 178   0.0000       3.746249       101.9406 
 179   0.0000       3.770753       102.6074 
 180   0.0000       3.928814       106.9085 
 181   0.0000       3.954700       107.6129 
 182   0.0000       4.084689       111.1500 
 183   0.0000       4.088378       111.2504 
 184   0.0000       4.166341       113.3719 
 185   0.0000       4.170062       113.4731 
 186   0.0000       4.175551       113.6225 
 187   0.0000       4.184212       113.8582 
 188   0.0000       4.185115       113.8828 
 189   0.0000       4.191959       114.0690 
 190   0.0000       4.200599       114.3041 
 191   0.0000       4.202797       114.3639 
 192   0.0000       4.247489       115.5801 
 193   0.0000       4.282337       116.5283 
 194   0.0000       4.338796       118.0646 
 195   0.0000       4.356017       118.5332 
 196   0.0000       4.451186       121.1229 
 197   0.0000       4.457813       121.3033 
 198   0.0000       4.559030       124.0575 
 199   0.0000       4.569364       124.3387 
 200   0.0000       4.677327       127.2765 
 201   0.0000       4.695843       127.7804 
 202   0.0000       4.744419       129.1022 
 203   0.0000       4.751596       129.2975 
 204   0.0000       4.778827       130.0385 
 205   0.0000       4.788047       130.2894 
 206   0.0000       4.792992       130.4239 
 207   0.0000       4.800507       130.6284 
 208   0.0000       4.812875       130.9650 
 209   0.0000       4.843925       131.8099 
 210   0.0000       4.866949       132.4364 
 211   0.0000       4.880738       132.8116 
 212   0.0000       4.996818       135.9703 
 213   0.0000       5.006332       136.2292 
 214   0.0000       5.259508       143.1185 
 215   0.0000       5.269566       143.3922 
 216   0.0000       5.316646       144.6733 
 217   0.0000       5.330940       145.0623 
 218   0.0000       5.493447       149.4843 
 219   0.0000       5.506878       149.8498 
 220   0.0000       5.519857       150.2030 
 221   0.0000       5.539305       150.7321 
 222   0.0000       5.842864       158.9924 
 223   0.0000       5.849390       159.1700 
 224   0.0000       5.866089       159.6244 
 225   0.0000       5.874678       159.8581 
 226   0.0000       6.053235       164.7169 
 227   0.0000       6.069210       165.1516 
 228   0.0000       6.205555       168.8617 
 229   0.0000       6.216831       169.1686 
 230   0.0000       6.820578       185.5974 
 231   0.0000       6.835971       186.0162 
 232   0.0000       6.847664       186.3344 
 233   0.0000       6.854006       186.5070 
 234   0.0000       6.860483       186.6832 
 235   0.0000       6.867999       186.8877 
 236   0.0000       6.918763       188.2691 
 237   0.0000       6.926014       188.4664 
 238   0.0000       7.674493       208.8336 
 239   0.0000       7.690347       209.2650 
 240   0.0000       7.752467       210.9553 
 241   0.0000       7.761719       211.2071 
 242   0.0000       7.784542       211.8282 
 243   0.0000       7.785547       211.8555 
 244   0.0000       7.792706       212.0503 
 245   0.0000       7.804383       212.3681 
 246   0.0000       7.829426       213.0495 
 247   0.0000       7.855460       213.7579 
 248   0.0000       7.892521       214.7664 
 249   0.0000       7.898742       214.9357 
 250   0.0000       7.928479       215.7449 
 251   0.0000       7.956980       216.5204 
 252   0.0000       8.007070       217.8835 
 253   0.0000       8.020367       218.2453 
 254   0.0000       8.171756       222.3648 
 255   0.0000       8.180969       222.6155 
 256   0.0000       8.236702       224.1321 
 257   0.0000       8.269888       225.0351 
 258   0.0000       8.505414       231.4441 
 259   0.0000       8.532539       232.1822 
 260   0.0000       8.615824       234.4485 
 261   0.0000       8.632562       234.9039 
 262   0.0000       8.642453       235.1731 
 263   0.0000       8.656489       235.5550 
 264   0.0000       8.728415       237.5123 
 265   0.0000       8.739107       237.8032 
 266   0.0000       8.746217       237.9967 
 267   0.0000       8.753339       238.1905 
 268   0.0000       8.839423       240.5329 
 269   0.0000       8.846246       240.7186 
 270   0.0000       8.993808       244.7340 
 271   0.0000       9.006603       245.0821 
 272   0.0000       9.028040       245.6655 
 273   0.0000       9.044437       246.1116 
 274   0.0000       9.159631       249.2462 
 275   0.0000       9.171827       249.5781 
 276   0.0000       9.593057       261.0404 
 277   0.0000       9.605940       261.3909 
 278   0.0000       9.810845       266.9667 
 279   0.0000       9.825448       267.3640 
 280   0.0000       9.869886       268.5732 
 281   0.0000       9.870991       268.6033 
 282   0.0000       9.889225       269.0995 
 283   0.0000       9.893848       269.2253 
 284   0.0000       9.974948       271.4321 
 285   0.0000       9.983088       271.6536 
 286   0.0000      10.310926       280.5746 
 287   0.0000      10.324376       280.9405 
 288   0.0000      10.423658       283.6422 
 289   0.0000      10.438697       284.0514 
 290   0.0000      10.747935       292.4662 
 291   0.0000      10.761971       292.8481 
 292   0.0000      11.002492       299.3930 
 293   0.0000      11.005703       299.4804 
 294   0.0000      11.044811       300.5446 
 295   0.0000      11.052728       300.7600 
 296   0.0000      11.132523       302.9313 
 297   0.0000      11.151903       303.4587 
 298   0.0000      11.264836       306.5318 
 299   0.0000      11.298495       307.4477 
 300   0.0000      11.309449       307.7458 
 301   0.0000      11.319988       308.0325 
 302   0.0000      11.408783       310.4488 
 303   0.0000      11.422475       310.8213 
 304   0.0000      11.678580       317.7903 
 305   0.0000      11.688674       318.0650 
 306   0.0000      11.770327       320.2869 
 307   0.0000      11.781804       320.5992 
 308   0.0000      11.838637       322.1457 
 309   0.0000      11.863701       322.8277 
 310   0.0000      11.969264       325.7002 
 311   0.0000      11.980120       325.9956 
 312   0.0000      12.158769       330.8569 
 313   0.0000      12.164192       331.0045 
 314   0.0000      12.180860       331.4581 
 315   0.0000      12.196310       331.8785 
 316   0.0000      12.548425       341.4600 
 317   0.0000      12.550444       341.5149 
 318   0.0000      12.668069       344.7157 
 319   0.0000      12.682365       345.1047 
 320   0.0000      12.766746       347.4008 
 321   0.0000      12.770886       347.5135 
 322   0.0000      12.877914       350.4259 
 323   0.0000      12.881304       350.5181 
 324   0.0000      13.185593       358.7982 
 325   0.0000      13.197442       359.1207 
 326   0.0000      13.860646       377.1674 
 327   0.0000      13.866670       377.3313 
 328   0.0000      13.973587       380.2406 
 329   0.0000      13.983146       380.5007 
 330   0.0000      14.371656       391.0726 
 331   0.0000      14.375217       391.1695 
 332   0.0000      14.731333       400.8599 
 333   0.0000      14.739656       401.0864 
 334   0.0000      14.784779       402.3143 
 335   0.0000      14.793495       402.5515 
 336   0.0000      15.134219       411.8230 
 337   0.0000      15.140834       412.0030 
 338   0.0000      16.755841       455.9496 
 339   0.0000      16.763021       456.1450 
 340   0.0000      17.194138       467.8763 
 341   0.0000      17.197364       467.9641 
 342   0.0000      45.371652      1234.6254 
 343   0.0000      45.400651      1235.4145 

--------------------
FRAGMENT INFORMATION
--------------------
Fragment  1:    0   1   2 
Fragment  2:    3   4   5 


                    ********************************
                    * MULLIKEN POPULATION ANALYSIS *
                    ********************************

-------------------------
MULLIKEN FRAGMENT CHARGES
-------------------------
 Fragment   0 :   0.000289
 Fragment   1 :  -0.000289
Sum of fragment charges:    0.0000000

---------------------------------
MULLIKEN FRAGMENT OVERLAP CHARGES
---------------------------------
                  0          1    
      0      11.133718   0.001052
      1       0.001052  11.139396

-----------------------
MULLIKEN ATOMIC CHARGES
-----------------------
   0 O :   -0.612163
   1 H :    0.297194
   2 H :    0.315258
   3 O :   -0.607751
   4 H :    0.308003
   5 H :    0.299460
Sum of atomic charges:    0.0000000

--------------------------------
MULLIKEN REDUCED ORBITAL CHARGES
--------------------------------
  0 O s       :     3.873737  s :     3.873737
      pz      :     1.543495  p :     4.700990
      px      :     1.815224
      py      :     1.342271
      dz2     :     0.008699  d :     0.033114
      dxz     :     0.003360
      dyz     :     0.012610
      dx2y2   :     0.003219
      dxy     :     0.005226
      f0      :     0.000165  f :     0.003781
      f+1     :     0.000195
      f-1     :     0.001086
      f+2     :     0.000634
      f-2     :     0.000347
      f+3     :     0.000956
      f-3     :     0.000400
      g0      :     0.000029  g :     0.000541
      g+1     :     0.000009
      g-1     :     0.000152
      g+2     :     0.000124
      g-2     :     0.000023
      g+3     :     0.000070
      g-3     :     0.000033
      g+4     :     0.000000
      g-4     :     0.000100
  1 H s       :     0.597279  s :     0.597279
      pz      :     0.019999  p :     0.093306
      px      :     0.046799
      py      :     0.026509
      dz2     :     0.003413  d :     0.012884
      dxz     :     0.005494
      dyz     :    -0.000152
      dx2y2   :     0.000826
      dxy     :     0.003303
      f0      :    -0.000071  f :    -0.000663
      f+1     :     0.000135
      f-1     :    -0.000279
      f+2     :    -0.000315
      f-2     :     0.000069
      f+3     :    -0.000025
      f-3     :    -0.000177
  2 H s       :     0.585995  s :     0.585995
      pz      :     0.023896  p :     0.087155
      px      :     0.042780
      py      :     0.020478
      dz2     :     0.000262  d :     0.012266
      dxz     :     0.000253
      dyz     :     0.002887
      dx2y2   :     0.003429
      dxy     :     0.005434
      f0      :    -0.000202  f :    -0.000674
      f+1     :    -0.000058
      f-1     :    -0.000180
      f+2     :    -0.000102
      f-2     :    -0.000095
      f+3     :    -0.000086
      f-3     :     0.000049
  3 O s       :     3.870358  s :     3.870358
      pz      :     1.777513  p :     4.699409
      px      :     1.328241
      py      :     1.593655
      dz2     :     0.004270  d :     0.033632
      dxz     :     0.002963
      dyz     :     0.006239
      dx2y2   :     0.002312
      dxy     :     0.017848
      f0      :     0.000644  f :     0.003815
      f+1     :     0.000689
      f-1     :     0.000275
      f+2     :     0.000058
      f-2     :     0.000934
      f+3     :     0.000095
      f-3     :     0.001121
      g0      :     0.000047  g :     0.000538
      g+1     :     0.000021
      g-1     :     0.000038
      g+2     :     0.000024
      g-2     :     0.000066
      g+3     :     0.000049
      g-3     :     0.000063
      g+4     :     0.000100
      g-4     :     0.000129
  4 H s       :     0.584584  s :     0.584584
      pz      :     0.040314  p :     0.092150
      px      :     0.028115
      py      :     0.023721
      dz2     :     0.005696  d :     0.015438
      dxz     :     0.002573
      dyz     :     0.002073
      dx2y2   :     0.002946
      dxy     :     0.002150
      f0      :     0.000008  f :    -0.000175
      f+1     :     0.000166
      f-1     :     0.000400
      f+2     :    -0.000280
      f-2     :    -0.000037
      f+3     :    -0.000275
      f-3     :    -0.000158
  5 H s       :     0.595544  s :     0.595544
      pz      :     0.044256  p :     0.093109
      px      :     0.022646
      py      :     0.026207
      dz2     :    -0.000003  d :     0.012542
      dxz     :     0.006565
      dyz     :     0.001949
      dx2y2   :     0.002630
      dxy     :     0.001401
      f0      :     0.000004  f :    -0.000655
      f+1     :    -0.000140
      f-1     :     0.000018
      f+2     :    -0.000092
      f-2     :     0.000275
      f+3     :    -0.000433
      f-3     :    -0.000286


                     *******************************
                     * LOEWDIN POPULATION ANALYSIS *
                     *******************************

------------------------
LOEWDIN FRAGMENT CHARGES
------------------------
 Fragment   0 :   0.002072
 Fragment   1 :  -0.002072

----------------------------
LOEWDIN FRAGMENT BOND ORDERS
----------------------------
                  0          1    
      0      19.239830   0.009906
      1       0.009906  19.246074

----------------------
LOEWDIN ATOMIC CHARGES
----------------------
   0 O :    1.570945
   1 H :   -0.808834
   2 H :   -0.760038
   3 O :    1.568505
   4 H :   -0.760475
   5 H :   -0.810102

-------------------------------
LOEWDIN REDUCED ORBITAL CHARGES
-------------------------------
  0 O s       :     2.889724  s :     2.889724
      pz      :     1.165537  p :     3.449727
      px      :     1.223035
      py      :     1.061154
      dz2     :     0.015430  d :     0.069705
      dxz     :     0.001806
      dyz     :     0.029729
      dx2y2   :     0.012437
      dxy     :     0.010304
      f0      :     0.001181  f :     0.017142
      f+1     :     0.000774
      f-1     :     0.004838
      f+2     :     0.002627
      f-2     :     0.001771
      f+3     :     0.003892
      f-3     :     0.002060
      g0      :     0.000088  g :     0.002758
      g+1     :     0.000106
      g-1     :     0.000682
      g+2     :     0.000540
      g-2     :     0.000246
      g+3     :     0.000317
      g-3     :     0.000165
      g+4     :     0.000073
      g-4     :     0.000539
  1 H s       :     0.584995  s :     0.584995
      pz      :     0.240341  p :     0.584157
      px      :     0.169341
      py      :     0.174475
      dz2     :     0.138769  d :     0.434359
      dxz     :     0.092553
      dyz     :     0.095288
      dx2y2   :     0.056418
      dxy     :     0.051331
      f0      :     0.050547  f :     0.205324
      f+1     :     0.022213
      f-1     :     0.038839
      f+2     :     0.032907
      f-2     :     0.039698
      f+3     :     0.008388
      f-3     :     0.012732
  2 H s       :     0.574295  s :     0.574295
      pz      :     0.152974  p :     0.556838
      px      :     0.173504
      py      :     0.230360
      dz2     :     0.037414  d :     0.423934
      dxz     :     0.022329
      dyz     :     0.133512
      dx2y2   :     0.114595
      dxy     :     0.116083
      f0      :     0.022876  f :     0.204971
      f+1     :     0.005210
      f-1     :     0.024954
      f+2     :     0.033784
      f-2     :     0.023423
      f+3     :     0.036467
      f-3     :     0.058258
  3 O s       :     2.890803  s :     2.890803
      pz      :     1.211469  p :     3.451110
      px      :     1.057908
      py      :     1.181732
      dz2     :     0.007441  d :     0.069718
      dxz     :     0.008806
      dyz     :     0.007027
      dx2y2   :     0.010161
      dxy     :     0.036282
      f0      :     0.002281  f :     0.017117
      f+1     :     0.002937
      f-1     :     0.001184
      f+2     :     0.000525
      f-2     :     0.004126
      f+3     :     0.001130
      f-3     :     0.004933
      g0      :     0.000311  g :     0.002747
      g+1     :     0.000222
      g-1     :     0.000140
      g+2     :     0.000099
      g-2     :     0.000338
      g+3     :     0.000316
      g-3     :     0.000347
      g+4     :     0.000447
      g-4     :     0.000527
  4 H s       :     0.573181  s :     0.573181
      pz      :     0.183224  p :     0.557998
      px      :     0.176301
      py      :     0.198473
      dz2     :     0.077321  d :     0.424626
      dxz     :     0.073104
      dyz     :     0.070262
      dx2y2   :     0.119948
      dxy     :     0.083991
      f0      :     0.011898  f :     0.204670
      f+1     :     0.032699
      f-1     :     0.028293
      f+2     :     0.032844
      f-2     :     0.029286
      f+3     :     0.045734
      f-3     :     0.023916
  5 H s       :     0.585835  s :     0.585835
      pz      :     0.165169  p :     0.585545
      px      :     0.229977
      py      :     0.190400
      dz2     :     0.034813  d :     0.433720
      dxz     :     0.117315
      dyz     :     0.029809
      dx2y2   :     0.127125
      dxy     :     0.124657
      f0      :     0.029685  f :     0.205002
      f+1     :     0.016432
      f-1     :     0.008693
      f+2     :     0.017396
      f-2     :     0.029207
      f+3     :     0.071781
      f-3     :     0.031808


                      *****************************
                      * MAYER POPULATION ANALYSIS *
                      *****************************

  NA   - Mulliken gross atomic population
  ZA   - Total nuclear charge
  QA   - Mulliken gross atomic charge
  VA   - Mayer's total valence
  BVA  - Mayer's bonded valence
  FA   - Mayer's free valence

  ATOM       NA         ZA         QA         VA         BVA        FA
  0 O      8.6122     8.0000    -0.6122     1.9114     1.9114     0.0000
  1 H      0.7028     1.0000     0.2972     0.9887     0.9887    -0.0000
  2 H      0.6847     1.0000     0.3153     0.9689     0.9689     0.0000
  3 O      8.6078     8.0000    -0.6078     1.9163     1.9163     0.0000
  4 H      0.6920     1.0000     0.3080     0.9843     0.9843    -0.0000
  5 H      0.7005     1.0000     0.2995     0.9867     0.9867     0.0000

  Mayer bond orders larger than 0.100000
B(  0-O ,  1-H ) :   0.9652 B(  0-O ,  2-H ) :   0.9452 B(  3-O ,  4-H ) :   0.9566 
B(  3-O ,  5-H ) :   0.9596 

-------
TIMINGS
-------

Total SCF time: 0 days 0 hours 0 min 8 sec 

Total time                  ....       8.295 sec
Sum of individual times     ....      13.288 sec  (160.2%)

Fock matrix formation       ....      12.666 sec  (152.7%)
  Split-RI-J                ....       2.123 sec  ( 16.8% of F)
  Chain of spheres X        ....       5.058 sec  ( 39.9% of F)
Diagonalization             ....       0.054 sec  (  0.6%)
Density matrix formation    ....       0.011 sec  (  0.1%)
Population analysis         ....       0.029 sec  (  0.3%)
Initial guess               ....       0.038 sec  (  0.5%)
Orbital Transformation      ....       0.000 sec  (  0.0%)
Orbital Orthonormalization  ....       0.000 sec  (  0.0%)
DIIS solution               ....       0.024 sec  (  0.3%)
SOSCF solution              ....       0.144 sec  (  1.7%)

Maximum memory used throughout the entire SCF-calculation: 94.6 MB


           ************************************************************
           *        Program running with 16 parallel MPI-processes    *
           *              working on a common directory               *
           ************************************************************


--------------------------------------------------------------------------------
                             ORCA-MATRIX DRIVEN CI
--------------------------------------------------------------------------------


Wavefunction type
-----------------
Correlation treatment                      ...      CCSD     
Single excitations                         ... ON
Orbital optimization                       ... OFF
Calculation of Z vector                    ... OFF
Calculation of Brueckner orbitals          ... OFF
Perturbative triple excitations            ... ON
Calculation of F12 correction              ... OFF
Frozen core treatment                      ... chemical core (4 el)
Reference Wavefunction                     ... RHF
  Internal Orbitals:     2 ...    9 (  8 MO's/ 16 electrons)
  Virtual  Orbitals:    10 ...  343 (334 MO's              )
Number of AO's                             ...    344
Number of electrons                        ...     20
Number of correlated electrons             ...     16

Algorithmic settings
--------------------
Integral transformation                    ... All integrals via the RI transformation
K(C) Formation                             ... RI-DLPNO
   PNO-Integral Storage                    ... ON DISK
   PNO occupation number cut-off           ... 1.000e-06
   Singles PNO occupation number cut-off   ... 3.000e-08
   PNO Mulliken prescreening cut-off       ... 1.000e-03
   Domain cut-off (Mulliken population)    ... 1.000e-03
   PNO Normalization                       ...    1
Maximum number of iterations               ...        50
Convergence tolerance (max. residuum)      ... 1.000e-06
Level shift for amplitude update           ... 2.000e-01
Maximum number of DIIS vectors             ...         7
DIIS turned on at iteration                ...         0
Damping before turning on DIIS             ...     0.500
Damping after turning on DIIS              ...     0.000
Pair specific amplitude update             ... OFF
Natural orbital iterations                 ... OFF
Perturbative natural orbital generation    ... OFF
Printlevel                                 ... 3

Singles Fock matrix elements calculated using PNOs.

Memory handling:
----------------
Maximum memory for working arrays          ...   6000 MB
Data storage in matrix containers          ... UNCOMPRESSED
Data type for integral storage             ... DOUBLE
In-Core Storage of quantities:
   Amplitudes+Sigma Vector      ... NO
   J+K operators                ... NO
   DIIS vectors                 ... NO
   3-external integrals         ... NO
   4-external integrals         ... NO

Localization treatment:
-----------------------
Localization option                        ...    6
Localization threshhold                    ... -1.0e+00
Using relative localization threshhold     ... 1.0e-08
Neglect threshold for strong pairs         ... 1.000e-05 Eh
Prescreening threshold for very weak pairs ... 1.000e-07 Eh

Initializing the integral package          ... done
Localizing the valence orbitals
Localizing the valence orbitals
------------------------------------------------------------------------------
                           ORCA ORBITAL LOCALIZATION
------------------------------------------------------------------------------

Input orbitals are from                  ... frag21.gbw
Output orbitals are to                   ... frag21.loc
Max. number of iterations                ... 128
Localizations seeded randomly            ... off
Convergence tolerance                    ... 2.000e-07
Using relative localization threshhold   ... 1.000e-08
Threshold for strong local MOs           ... 9.500e-01
Threshold for bond MOs                   ... 8.500e-01
Operator                                 ... 0
Orbital range for localization           ... 2 to 9
Localization criterion                   ... FOSTER-BOYS (AUGMENTED HESSIAN)
Doing the dipole integrals     ... o.k.
Initial value of the localization sum :   163.370186
ITERATION   0 : L=  166.8243342611 DL=  3.45e+00 (AVERGE_DL)=    0.3512298710 
ITERATION   1 : L=  167.3309242259 DL=  5.07e-01 (AVERGE_DL)=    0.1345083594 
ITERATION   2 : L=  167.4341008249 DL=  1.03e-01 (AVERGE_DL)=    0.0607032004 
ITERATION   3 : L=  167.4428057582 DL=  8.70e-03 (AVERGE_DL)=    0.0176320865 
ITERATION   4 : L=  167.4438460180 DL=  1.04e-03 (AVERGE_DL)=    0.0060952550 
ITERATION   5 : L=  167.4439660531 DL=  1.20e-04 (AVERGE_DL)=    0.0020704997 
ITERATION   6 : L=  167.4439789000 DL=  1.28e-05 (AVERGE_DL)=    0.0006773597 
ITERATION   7 : L=  167.4439802016 DL=  1.30e-06 (AVERGE_DL)=    0.0002156063 
ITERATION   8 : L=  167.4439803284 DL=  1.27e-07 (AVERGE_DL)=    0.0000673163 
LOCALIZATION SUM CONVERGED

------------------------------------------------------
AUGMENTED HESSIAN OPTIMIZATION OF FOSTER-BOYS ORBITALS
------------------------------------------------------

Spin operator:           0
Orbital window:          2 to 9
Number of iterations:    128
Gradient tolerance:      2.000e-07
Number of pairs:         28
Davidson threshold:      2000
Diagonalization method:  LAPACK
Iter:    0   L: 167.4439803284   Grad. norm: 7.363212e-04
   *** Likely close to a maximum now. ***
       Augmented Hessian eigenvalues:  2.83e-08 -1.28e+00 -1.29e+00 -3.20e+00 ... 
Iter:    1   L: 167.4439803426   Grad. norm: 9.186612e-09
LOCALIZATION HAS CONVERGED.

Eigenvalues of the Hessian:
  0 -1.277e+00
  1 -1.286e+00
  2 -3.201e+00
  3 -3.211e+00
  4 -4.686e+00
  5 -4.695e+00
  6 -5.332e+00
  7 -5.342e+00
  8 -7.196e+00
  9 -7.204e+00
    ...


--------------------------------------------------------------------------------
                    LOCALIZED MOLECULAR ORBITAL COMPOSITIONS
--------------------------------------------------------------------------------

The Mulliken populations for each LMO on each atom are computed
The LMO`s will be ordered according to atom index and type
  (A) Strongly localized MO`s have populations of >=0.950 on one atom
  (B) Two center bond orbitals have populations of >=0.850 on two atoms
  (C) Other MO`s are considered to be `delocalized`

FOUND  -   4 strongly local MO`s
       -   4 two center bond MO`s
       -   0 significantly delocalized MO`s

Rather strongly localized orbitals:
MO   5:   3O  -   1.003406
MO   4:   3O  -   1.001125
MO   3:   0O  -   1.007304
MO   2:   0O  -   0.996799
Bond-like localized orbitals:
MO   9:   5H  -   0.349560  and   3O  -   0.644477
MO   8:   4H  -   0.341872  and   3O  -   0.655509
MO   7:   2H  -   0.342818  and   0O  -   0.655565
MO   6:   1H  -   0.351350  and   0O  -   0.646840
Localized MO's were stored in: frag21.loc

Localizing the core orbitals
------------------------------------------------------------------------------
                           ORCA ORBITAL LOCALIZATION
------------------------------------------------------------------------------

Input orbitals are from                  ... frag21.loc
Output orbitals are to                   ... frag21.loc
Max. number of iterations                ... 128
Localizations seeded randomly            ... off
Convergence tolerance                    ... 2.000e-07
Using relative localization threshhold   ... 1.000e-08
Threshold for strong local MOs           ... 9.500e-01
Threshold for bond MOs                   ... 8.500e-01
Operator                                 ... 0
Orbital range for localization           ... 0 to 1
Localization criterion                   ... FOSTER-BOYS (AUGMENTED HESSIAN)
Doing the dipole integrals     ... o.k.
Initial value of the localization sum :    40.348002
ITERATION   0 : L=   40.3480020744 DL=  8.21e-09 (AVERGE_DL)=    0.0000906320 
LOCALIZATION SUM CONVERGED

------------------------------------------------------
AUGMENTED HESSIAN OPTIMIZATION OF FOSTER-BOYS ORBITALS
------------------------------------------------------

Spin operator:           0
Orbital window:          0 to 1
Number of iterations:    128
Gradient tolerance:      2.000e-07
Number of pairs:         1
Davidson threshold:      2000
Diagonalization method:  LAPACK
Iter:    0   L: 40.3480020744   Grad. norm: 2.085132e-18
   *** Likely close to a maximum now. ***
       Augmented Hessian eigenvalues:  1.47e-38 -2.96e+02
Iter:    1   L: 40.3480020744   Grad. norm: 1.654361e-24
LOCALIZATION HAS CONVERGED.

Eigenvalues of the Hessian:
  0 -2.960e+02


--------------------------------------------------------------------------------
                    LOCALIZED MOLECULAR ORBITAL COMPOSITIONS
--------------------------------------------------------------------------------

The Mulliken populations for each LMO on each atom are computed
The LMO`s will be ordered according to atom index and type
  (A) Strongly localized MO`s have populations of >=0.950 on one atom
  (B) Two center bond orbitals have populations of >=0.850 on two atoms
  (C) Other MO`s are considered to be `delocalized`

FOUND  -   2 strongly local MO`s
       -   0 two center bond MO`s
       -   0 significantly delocalized MO`s

Rather strongly localized orbitals:
MO   1:   3O  -   0.999394
MO   0:   0O  -   0.999539
Localized MO's were stored in: frag21.loc

Warning: reference  - re-canonicalizations have been set to INT 1 VIRT 1
Warning: internal orbitals are localized - no re-canonicalization of internal orbitals
Warning: UsePNO is turned on - no re-canonicalization of internal and virtual orbitals

--------------------------
CLOSED-SHELL FOCK OPERATOR
--------------------------

Restoring SHARK [2] ... ok
Entering RIJCOSX section for the Fock matrix
Trying to retrieve the full J-matrix              ... done
Updating the Fock matrix                          ... done
Making the frozen core Coulomb matrix             ... SHARKdone
Retrieving the full K-matrix                      ... done
Calculating the frozen core K-matrix              ... done
Updating the Fock matrix                          ... done
Time needed for Fock operator              ...            1.495 sec
Reference energy                           ...   -152.130217641

--------------
DLPNO SETTINGS (2015 fully linear scaling implementation)
--------------

TCutMKN:           1.000e-03
TCutPAO:           1.000e-03
TCutPNO:           1.000e-06
TCutPNOSingles:    3.000e-08
TCutEN:            9.700e-01
TCutPAOExt:        1.000e-01
TCutPairs:         1.000e-05
TCutPre:           1.000e-07
TCutOSV:           1.000e-06
TCutDOij:          1.000e-05
TCutDO:            5.000e-03
TCutC:             1.000e-04
TCutCPAO:          1.000e-03
TCutCMO:           1.000e-03
TScaleDOMP2PreScr: 2.000e+00
TScaleMKNMP2PreScr:1.000e+01
TScalePNOMP2PreScr:1.000e+00
PAO overlap thresh 1.000e-08
Using PNOs for Singles Fock computation
Use new domains
Use fully linear algorithm
TCutTNO:           1.000e-09
TCutMP2Pairs:      1.000e-06
TCutDOStrong:      1.000e-02
TCutDOWeak:        2.000e-02
TCutMKNStrong:     1.000e-02
TCutMKNWeak:       1.000e-01
NTCutTNO:          1

--------------------------
Mulliken population of the LMOs            ... ok
Performing proximity check                 ... 
 found 1 problematic atoms
   => In all likelyhood your results will be entirely fine!
   => In case you don't want to trust it, decrease TCutMKN to below 0.00087814.
   => but note that this is probably not necessary but will increase execution time
Calculating differential overlap integrals ... ok

--------------------------
ELECTRON PAIR PRESCREENING
--------------------------

Dipole-based pair screening          .... used

   TCutDOij = 1.000000e-05
   TCutPre  = 1.000000e-07
   .... Finished loop over pairs
Total time spent in the prescreening                  ...     0.000 sec
Time for pair-prescreening                            ...     0.000 sec
Time for pairlist organization                        ...     0.000 sec
Number of pairs skipped by pre-screening              ... 0
sum of pair energies estimated for screened out pairs ...       0.000000000000 Eh
Thresholds for map construction and integral transformation for crude MP2:
   TCutMKN                    ...     1.0e-02
   TCutDO                     ...     1.0e-02
   TCutPairs                  ...     1.0e-05
   TCutPNO_CrudeMP2           ...     1.0e-06
   TCutPNOSingles_CrudeMP2    ...     3.0e-08
--------------------------------
LOCAL RI TRANSFORMATION (IAVPAO)
--------------------------------

Orbital window:       2 to 9
Number of PAOs:     344
Basis functions:    344 (96 shells)
Aux. functions:    1664 (316 shells)
Use SHARK:           on

Processing maps (0.0 sec)
Average map sizes:
   Aux shells -> MOs               8.0
   Aux shells -> PAOs            344.0
   MOs        -> AO shells        91.8
   PAOs       -> AO shells        96.0

Calculating integrals (0.6 sec, 34.957 MB)
Sorting integrals (0.1 sec, 34.938 MB)
Total time for the integral transformation: 0.7 sec
--------------------------------
INITIAL GUESS AND PNO GENERATION
--------------------------------

Populations of internal orbitals onto Fragments:
   2:      1.000    0.000  assigned to fragment   1
   3:      1.015    0.000  assigned to fragment   1
   4:      0.000    1.002  assigned to fragment   2
   5:      0.000    1.007  assigned to fragment   2
   6:      1.000    0.000  assigned to fragment   1
   7:      1.000    0.000  assigned to fragment   1
   8:      0.000    1.000  assigned to fragment   2
   9:      0.000    1.000  assigned to fragment   2

Summary assignment:
   4 orbitals assigned to fragment   1
   4 orbitals assigned to fragment   2

PNO truncation parameters                   .... 
    PAOOverlapThresh   =        1.000e-08

    TCutPairs          =        1.000e-05
    TCutPNO            =        1.000e-06
    TCutPNOSingles     =        3.000e-08
    TCutMP2Pairs       =        1.000e-06
    TCutMKN            =        1.000e-02
    TCutDO             =        1.000e-02

Pair selection                          .... not used
Type of local MP2 treatment                 .... semi-local MP2
Strategy for PNO selection                  .... occupation number selection
Pair density normalization                  .... MP2 norm
Spin component scaling                      .... not used

   .... Finished loop over pairs
Making pair pair interaction lists          ... 
Pair pair interaction statistics
Nr. of pairs:                        24
Nr. of Singles:                       8
Average (per pair domain)               (Total):
Atoms:                              5.5 (6)
PNOs:                               4.2
PAOs:                  321.0 (344)
Aux functions:                    608.1 (1664)
AuxAtoms:                           1.9 (6)
EXT1 basis functions:             344.0 (344)
Interacting Pairs:                  2.0 (24)
Interacting Pairs - Singles:        8.0 (8)
Average (per Single domain):
Atoms (Singles):                    5.1 (6)
PNOs (Singles):                    98.6
Basis functions (Singles):        303.8 (344)
Interacting Singles - Singles:      8.0 (8)
Interacting Singles - Pairs:       24.0 (24)
done

                       ===========================
                         24 OF   36 PAIRS ARE KEPT CCSD PAIRS
                          6 OF   36 PAIRS ARE KEPT MP2 PAIRS FOR (T)
                          6 OF   36 PAIRS ARE SKIPPED
                       ===========================

Total time spent in the initial guess                 ...     0.396 sec
Pair domain construction                              ...     0.000 sec
Time for calculating MP2 Guess in PAOs                ...     0.128 sec
     Time for Local metric generation                 ...     0.000 sec
     Time for Local Kij generation                    ...     0.037 sec
     Time for Local MP2 calculation                   ...     0.002 sec
     Time for LMP2 iterations                         ...     0.000 sec
          prep and other time                         ...     0.000 sec
          Time for sigma                              ...     0.000 sec (    0.000 sec in k-loop)
          Time for DIIS                               ...     0.000 sec
          Time for Update                             ...     0.000 sec
      Time for LMP2 I/O                               ...     0.000 sec
      Time for Initial PNO                            ...     0.000 sec
Time for generating PNOs                              ...     0.015 sec
Time for pairlist organization                        ...     0.000 sec
Time for pair-pair interaction organization           ...     0.001 sec
Size of the domain VM**-1/2 file                      ...         0 MB
SL-MP2 correlation energy (all non-screened pairs)    ...      -0.557620810484 Eh

Initial PNO correlation energy                        ...      -0.554433632440 Eh
sum of pair energies prescreened and skipped MP2 pairs...      -0.000023731116 Eh
sum of pair energies of crude MP2 skipped pairs only  ...       0.000000000000 Eh
sum of MP2 pair energies for pairs that were not kept ...      -0.000066836255 Eh
sum of PNO error estimates for the kept pairs         ...      -0.003120341790 Eh
                                                          --------------------
sum of all corrections                                         -0.003187178045
Initial total correlation energy                               -0.557620810484
Thresholds for map construction and integral transformation for fine MP2 and CCSD(T) calculation:
   TCutMKN   ...     1.0e-03
   TCutDO    ...     5.0e-03
   TCutPairs ...     1.0e-05
   TCutCMO   ...     1.0e-03
   TCutCPAO  ...     1.0e-03

Thresholds for map construction and integral transformation for strong Triples:
   TCutMKN   ...     1.0e-02
   TCutDO    ...     1.0e-02
   TCutCMO   ...     1.0e-03
   TCutCPAO  ...     1.0e-03

Thresholds for map construction and integral transformation for weak Triples:
   TCutMKN   ...     1.0e-01
   TCutDO    ...     2.0e-02
   TCutCMO   ...     1.0e-03
   TCutCPAO  ...     1.0e-03

--------------------------------
LOCAL RI TRANSFORMATION (IAVPAO)
--------------------------------

Orbital window:       2 to 9
Number of PAOs:     344
Basis functions:    344 (96 shells)
Aux. functions:    1664 (316 shells)
Use SHARK:           on

Processing maps (0.0 sec)
Average map sizes:
   Aux shells -> MOs               8.0
   Aux shells -> PAOs            344.0
   MOs        -> AO shells        91.8
   PAOs       -> AO shells        96.0

Calculating integrals (0.6 sec, 34.957 MB)
Sorting integrals (0.1 sec, 34.938 MB)
Total time for the integral transformation: 0.6 sec
--------------------------------
INITIAL GUESS AND PNO GENERATION
--------------------------------

Populations of internal orbitals onto Fragments:
   2:      1.000    0.000  assigned to fragment   1
   3:      1.015    0.000  assigned to fragment   1
   4:      0.000    1.002  assigned to fragment   2
   5:      0.000    1.007  assigned to fragment   2
   6:      1.000    0.000  assigned to fragment   1
   7:      1.000    0.000  assigned to fragment   1
   8:      0.000    1.000  assigned to fragment   2
   9:      0.000    1.000  assigned to fragment   2

Summary assignment:
   4 orbitals assigned to fragment   1
   4 orbitals assigned to fragment   2

PNO truncation parameters                   .... 
    ScaleTCutPNO       =        1.000e-02
    PAOOverlapThresh   =        1.000e-08

    TCutPairs          =        1.000e-05
    TCutPNO            =        1.000e-06
    TCutPNOSingles     =        3.000e-08
    TCutMP2Pairs       =        1.000e-06
    TCutMKN            =        1.000e-03
    TCutDO             =        5.000e-03

Pair selection                          .... not used
Type of local MP2 treatment                 .... full local PMP2
Strategy for PNO selection                  .... occupation number selection
Pair density normalization                  .... MP2 norm
Spin component scaling                      .... not used

PASS-1: Formation of initial guess LMP2 amplitudes
Initial amplitudes guess done. Entering LMP2 iteration loop:
   Max. no of iterations          ...  50
   Energy convergence tolerance   ...    1.0e-07
   Residual convergence tolerance ...    5.0e-07
   Fock matrix cutoff             ...    1.0e-05 Eh
   DIIS convergence acceleration parameters:
        Max # vectors in DIIS     ... 7
        Start iteration of DIIS   ... 0
        Levelshift                ... 2.000e-01
        Damping factor 1          ... 5.000e-01
        Damping factor 2          ... 1.000e+00
   L-MP2 PNO cut-off              ...   1.0e-08
   L-MP2 PNO cut-off (core)       ...   1.0e-10
342 of 420 terms in k-loop evaluated.

                           *** Turning on DIIS ***
LMP2-Iter=   0:  ELMP2= -0.567577946186  DE=   1.0e-02 RMAX=   6.1e-03
LMP2-Iter=   1:  ELMP2= -0.572998188170  DE=   5.4e-03 RMAX=   2.8e-03
LMP2-Iter=   2:  ELMP2= -0.573775473235  DE=   7.8e-04 RMAX=   5.5e-04
LMP2-Iter=   3:  ELMP2= -0.573879919092  DE=   1.0e-04 RMAX=   1.6e-04
LMP2-Iter=   4:  ELMP2= -0.573887321582  DE=   7.4e-06 RMAX=   1.8e-05
LMP2-Iter=   5:  ELMP2= -0.573887223668  DE=   9.8e-08 RMAX=   4.6e-06
LMP2-Iter=   6:  ELMP2= -0.573887195055  DE=   2.9e-08 RMAX=   4.9e-07
LMP2-Iter=   7:  ELMP2= -0.573887188279  DE=   6.8e-09 RMAX=   8.7e-08 => CONVERGED
PASS-2: Formation of Pair natural orbitals
   .... Finished loop over pairs
Process  1:   (    3,     3):  99.878131309478 %
Process  1:   (    4,     2):  86.162738259011 %
Process  1:   (    3):  99.996027569323 % (IJ)
Process  2:   (    4,     3):  67.404940158650 %
Process  2:   (    4,     4):  99.879930374951 %
Process  2:   (    4):  99.996306394780 % (IJ)
[...]

FRAGMENT    1 =  -0.288045078596 Eh ...   

----------------------------------------------------------------------------------------------------------------------------------------
    i   j  type :        EP         (%)         Direct-            Single             Double         PNO in Mulliken                   
                                           Double Excitation     Charge-Transfer    Charge-Transfer  population range                   
                                                                                                      <0.7   >0.7                       
----------------------------------------------------------------------------------------------------------------------------------------
    7     7  :     -0.033517640 ( 11.64)      -0.033517640      0.000000000      0.000000000       0      49
    6     6  :     -0.033152806 ( 11.51)      -0.033152806      0.000000000      0.000000000       0      49
    3     2  :     -0.031258073 ( 10.85)      -0.031258073      0.000000000      0.000000000       0      58
    2     2  :     -0.028140617 (  9.77)      -0.028140617      0.000000000      0.000000000       0      48
    3     3  :     -0.028133861 (  9.77)      -0.028133861      0.000000000      0.000000000       0      48
    7     2  :     -0.027653092 (  9.60)      -0.027653092      0.000000000      0.000000000       0      56
    7     3  :     -0.027647729 (  9.60)      -0.027647729      0.000000000      0.000000000       0      56
    6     2  :     -0.027513062 (  9.55)      -0.027513062      0.000000000      0.000000000       0      56
    6     3  :     -0.027508734 (  9.55)      -0.027508734      0.000000000      0.000000000       0      56
    7     6  :     -0.023519464 (  8.17)      -0.023519464      0.000000000      0.000000000       0      52

Overall summary of excitation mechanisms for this fragment:
  Total direct double excitations (i->a(ij))(j->b(ij))                      -0.288045079 (100.000 per cent)
  Total single charge-transfer    (i->a(ij))(j->b(X)) & (i->a(X))(j->b(ij))  0.000000000 (-0.000 per cent)
  Total double charge transfer    (i->a(X))(j->b(X))                         0.000000000 (-0.000 per cent)
                                                       -----------------------------
  Sum                                                  -0.288045079
  Consistency check                                    -0.288045079
 done 
 
FRAGMENT    2 =  -0.288084576612 Eh ...   

----------------------------------------------------------------------------------------------------------------------------------------
    i   j  type :        EP         (%)         Direct-            Single             Double         PNO in Mulliken                   
                                           Double Excitation     Charge-Transfer    Charge-Transfer  population range                   
                                                                                                      <0.7   >0.7                       
----------------------------------------------------------------------------------------------------------------------------------------
    8     8  :     -0.033498550 ( 11.63)      -0.033498550      0.000000000      0.000000000       0      49
    9     9  :     -0.033165473 ( 11.51)      -0.033165473      0.000000000      0.000000000       0      49
    5     4  :     -0.031258861 ( 10.85)      -0.031258861      0.000000000      0.000000000       0      58
    5     5  :     -0.028137508 (  9.77)      -0.028137508      0.000000000      0.000000000       0      49
    4     4  :     -0.028135382 (  9.77)      -0.028135382      0.000000000      0.000000000       0      48
    8     5  :     -0.027654565 (  9.60)      -0.027654565      0.000000000      0.000000000       0      56
    8     4  :     -0.027654185 (  9.60)      -0.027654185      0.000000000      0.000000000       0      56
    9     5  :     -0.027525604 (  9.55)      -0.027525604      0.000000000      0.000000000       0      56
    9     4  :     -0.027525024 (  9.55)      -0.027525024      0.000000000      0.000000000       0      56
    9     8  :     -0.023529424 (  8.17)      -0.023529424      0.000000000      0.000000000       0      52

Overall summary of excitation mechanisms for this fragment:
  Total direct double excitations (i->a(ij))(j->b(ij))                      -0.288084577 (100.000 per cent)
  Total single charge-transfer    (i->a(ij))(j->b(X)) & (i->a(X))(j->b(ij))  0.000000000 (-0.000 per cent)
  Total double charge transfer    (i->a(X))(j->b(X))                         0.000000000 (-0.000 per cent)
                                                       -----------------------------
  Sum                                                  -0.288084577
  Consistency check                                    -0.288084577
 done 
 
 

Decomposition of the inter-fragments strong pairs energies .. 

FRAGMENTS    2,1 =  -0.000061926714 Eh ...   

------------------------------------------------------------------------------------------------------------------------------------------------
    i   j  type :         EP        (%)         Dipole-            Cross              Charge        Charge          PNO in Mulliken            
                                                 Dipole           Excitation          Transfer      Transfer        population range            
                                                                                                                      <0.7  >0.7                
------------------------------------------------------------------------------------------------------------------------------------------------
    8     2  :     -0.000031900 ( 51.51)      -0.000030506     -0.000000154     -0.000001060     -0.000000180       1       4
    4     2  :     -0.000011603 ( 18.74)      -0.000011463     -0.000000055     -0.000000047     -0.000000038       0       4
    5     2  :     -0.000009910 ( 16.00)      -0.000009264     -0.000000055     -0.000000526     -0.000000066       1       2
    8     3  :     -0.000008514 ( 13.75)      -0.000008400     -0.000000042     -0.000000057     -0.000000015       0       2
----------------------------------------------------------------------------------------------------------------------------------------------------------
                   -0.000061927               -0.000059632     -0.000000305     -0.000001690     -0.000000299 
                                                 ( 96.29%)        (  0.49%)        (  2.73%)        (  0.48%)
----------------------------------------------------------------------------------------------------------------------------------------------------------

Overall summary of excitation mechanisms for this fragment pair:
  Total local dipole excitations    (i->a(i))(j->b(j)) -0.000059632 (96.295 per cent)
  Total Cross excitations           (i->a(j))(j->b(i)) -0.000000305 ( 0.493 per cent)
  Total Charge transfer excitations (i->a(i))(j->b(i)) -0.000001690 ( 2.729 per cent)
  Total Charge transfer excitations (i->a(j))(j->b(j)) -0.000000299 ( 0.483 per cent)
                                                       -----------------------------
  Sum                                                  -0.000061927
  Consistency check                                    -0.000061927
 done 
 
 
Summary Strong Pairs Energy Decomposition    
 
Intra fragment contributions: 
INTRA Fragment 1                       -0.288045079 
INTRA Fragment 2                       -0.288084577 

Charge transfer contributions: 
Charge Transfer 1 to 2                 -0.000001690 
Charge Transfer 2 to 1                 -0.000000299 

Dispersion contributions: 
Dispersion  2,1                        -0.000059937 

Singles contributions:                   
Singles energy                         -0.000001470 
 

------------------------------------------------- 
FINAL SUMMARY DLPNO-CCSD ENERGY DECOMPOSITION (Eh)
------------------------------------------------- 
 
Intrafragment REF. energy:                   
Intra fragment   1 (REF.)              -76.064302893     
Intra fragment   2 (REF.)              -76.064256454     

Interaction of fragments  2 and  1:  
Electrostatics (REF.)                  -0.001630325 
Exchange (REF.)                        -0.000027962 
Dispersion (strong pairs)              -0.000059937 
Dispersion (weak pairs)                -0.000061386 

Sum of non dispersive correlation terms: 
Non dispersion (strong pairs)          -0.576133115  
Non dispersion (weak pairs)            -0.002914001  

#Time for LED analysis ..       2.9 (sec)



--------------------------------------------------------------------------------
                                    TIMINGS
--------------------------------------------------------------------------------


Total execution time                   ...       37.060 sec

Localization of occupied MO's          ...        0.308 sec (  0.8%)
Fock Matrix Formation                  ...        1.495 sec (  4.0%)
Global overlap, Fock, MKN matrices     ...        0.332 sec (  0.9%)
Differential overlap integrals         ...        0.674 sec (  1.8%)
Organizing maps                        ...        0.017 sec (  0.0%)
RI 3-index integral generations        ...        2.916 sec (  7.9%)
RI-PNO integral transformation         ...        5.968 sec ( 16.1%)
Initial Guess                          ...        1.523 sec (  4.1%)
DIIS Solver                            ...        0.194 sec (  0.5%)
State Vector Update                    ...        0.002 sec (  0.0%)
Sigma-vector construction              ...       10.126 sec ( 27.3%)
  <D|H|D>(0-ext)                       ...        0.035 sec (  0.3% of sigma)
  <D|H|D>(2-ext Fock)                  ...        0.001 sec (  0.0% of sigma)
  <D|H|D>(2-ext)                       ...        0.336 sec (  3.3% of sigma)
  <D|H|D>(4-ext)                       ...        2.076 sec ( 20.5% of sigma)
  <D|H|D>(4-ext-corr)                  ...        5.997 sec ( 59.2% of sigma)
  CCSD doubles correction              ...        0.005 sec (  0.1% of sigma)
  <S|H|S>                              ...        0.157 sec (  1.6% of sigma)
  <S|H|D>(1-ext)                       ...        0.011 sec (  0.1% of sigma)
  <S|H|D>(3-ext)                       ...        0.037 sec (  0.4% of sigma)
  Fock-dressing                        ...        0.379 sec (  3.7% of sigma)
  Singles amplitudes                   ...        0.051 sec (  0.5% of sigma)
  (ik|jl)-dressing                     ...        0.050 sec (  0.5% of sigma)
  (ij|ab),(ia|jb)-dressing             ...        0.081 sec (  0.8% of sigma)
  Pair energies                        ...        0.002 sec (  0.0% of sigma)
Total Time for computing (T)           ...       10.611 sec ( 28.6% of ALL)
Local Energy Decomposition             ...        2.867 sec (  7.7% of ALL)


Maximum memory used throughout the entire MDCI-calculation: 408.6 MB

-------------------------   --------------------
FINAL SINGLE POINT ENERGY      -152.728325936201
-------------------------   --------------------


                            ***************************************
                            *     ORCA property calculations      *
                            ***************************************


  WARNING: The energy has been calculated at the MDCI level but the densities
           used in the property calculations are still SCF densities
           MDCI response densities have not been calculated 
           use %mdci Density linearized end
           or  %mdci Density unrelaxed end
           or  %mdci Density orbopt end

                                    ---------------------
                                    Active property flags
                                    ---------------------
   (+) Dipole Moment


------------------------------------------------------------------------------
                       ORCA ELECTRIC PROPERTIES CALCULATION
------------------------------------------------------------------------------

Dipole Moment Calculation                       ... on
Quadrupole Moment Calculation                   ... off
Polarizability Calculation                      ... off
GBWName                                         ... frag21.gbw
Electron density                                ... frag21.scfp
The origin for moment calculation is the CENTER OF MASS  = ( 0.703642, -0.825056  0.731474)

-------------
DIPOLE MOMENT
-------------
                                X             Y             Z
Electronic contribution:     -0.02514       0.11654       0.09320
Nuclear contribution   :      0.22615      -0.60509      -0.46763
                        -----------------------------------------
Total Dipole Moment    :      0.20101      -0.48855      -0.37443
                        -----------------------------------------
Magnitude (a.u.)       :      0.64752
Magnitude (Debye)      :      1.64585



--------------------
Rotational spectrum 
--------------------
 
Rotational constants in cm-1:     6.702049     0.089111     0.088687 
Rotational constants in MHz : 200922.359672  2671.471831  2658.774863 

 Dipole components along the rotational axes: 
x,y,z [a.u.] :    -0.357265    -0.399337    -0.363550 
x,y,z [Debye]:    -0.908095    -1.015033    -0.924070 

 

--------------------------------
SUGGESTED CITATIONS FOR THIS RUN
--------------------------------

Below you find a list of papers that are relevant to this ORCA run
We neither can nor want to force you to cite these paper, but we appreciate if you do
You receive ORCA, which is the product of a lot of hard work by many enthusiastic individuals, for free
The *only* thing we kindly ask in return is that you cite our papers,
We deeply appreciate it, if you show your appreciation for ORCA but *not* just citing the generic ORCA reference.

Please note that relegating all ORCA citations to the supporting information does *not* help us.
SI sections are not index - citations you put there will not count into our citation statistics
But we need these citations in order to attract the funding ressources that allow us to do what we are doing

Therefore, please consider citing at least a few of the papers listed below, if you are a happy ORCA user

In addition to the list printed below, the program has created the file frag21.bibtex that contains the list in bibtex format
In this format, you can import it easily in all common literature databanks and citation aid programs


List of essential papers. We consider these as the minimum necessary citations

  1. Neese,F.
     Software update: the ORCA program system, version 5.0
     WIRES Comput. Molec. Sci., 2022 12(1)e1606
     doi.org/10.1002/wcms.1606

List of papers to cite with high priority. The work reported in these papers was absolutely
necessary for this run to complete.
Our perspective: the developers of density functionals and basis sets usually get cited in chemistry papers
Good! But without the algorithms to do something with them, the functionals or basis sets would not do anything.
Hence, in our opinion, the algorithm design and method developments papers are equally worthy of getting cited

  1. Neese,F.
     An improvement of the resolution of the identity approximation for the formation of the Coulomb matrix
     J. Comp. Chem., 2003 24(14)1740-1747
     doi.org/10.1002/jcc.10318
  2. Neese,F.; Wennmohs,F.; Hansen,A.; Becker,U.
     Efficient, approximate and parallel Hartree-Fock and hybrid DFT calculations. A 'chain-of-spheres' algorithm for the Hartree-Fock exchange
     Chem. Phys., 2009 356(1-3)98-109
     doi.org/10.1016/j.chemphys.2008.10.036
  3. Neese,F.; Hansen,A.; Liakos,D.G.
     Efficient and accurate approximations to the local coupled cluster singles doubles method using a truncated pair natural orbital basis
     J. Chem. Phys., 2009 131 064103
     doi.org/10.1063/1.3173827
  4. Neese,F.; Wennmohs,F.; Hansen,A.
     Efficient and accurate local approximations to coupled-electron pair approaches: An attempt to revive the pair natural orbital method
     J. Chem. Phys., 2009 130 114108
     doi.org/10.1063/1.3086717
  5. Riplinger,C.; Neese,F.
     An efficient and near linear scaling pair natural orbital based local coupled cluster method
     J. Chem. Phys., 2013 138(3)Art. No. 034106
     doi.org/10.1063/1.4773581
  6. Riplinger,C.; Sandhoefer,B.; Hansen,A.; Neese,F.
     Natural triple excitations in local coupled cluster calculations with pair natural orbitals
     J. Chem. Phys., 2013 139(13)Art. No. 134101
     doi.org/10.1063/1.4821834
  7. Riplinger,C.; Pinski,P.; Becker,U.; Valeev,E.F.; Neese,F.
     Sparse maps-A systematic infrastructure for reduced-scaling electronic structure methods. II. Linear scaling domain based pair natural orbital coupled cluster theory
     J. Chem. Phys., 2016 144 
     doi.org/10.1063/1.4939030
  8. Schneider,W.B.; Bistoni,G.; Sparta,M.; Saitow,M.; Riplinger,C.; Auer,A.A.; Neese,F.
     Decomposition of Intermolecular Interaction Energies within the Local Pair Natural Orbital Coupled Cluster Framework
     J. Theo. Comp. Chem., 2016 12 4778-4792
     doi.org/10.1021/acs.jctc.6b00523
  9. Bistoni,G.; Riplinger,C.; Minenkov,Y.; Cavallo,L.; Auer,A.A.; Neese,F.
     Treating Subvalence Correlation Effects in Domain Based Pair Natural Orbital Coupled Cluster Calculations: An Out-of-the-Box Approach
     J. Theo. Comp. Chem., 2017 13 3220-3227
     doi.org/10.1021/acs.jctc.7b00352
 10. Guo,Y.; Riplinger,C.; Becker,U.; Liakos,D.G.; Minenkov,Y.; Cavallo,L.; Neese,F.
     Communication: An improved linear scaling perturbative triples correction for the domain based local pair-natural orbital based singles and doubles coupled cluster method DLPNO-CCSD(T)
     J. Chem. Phys., 2018 148 5
     doi.org/10.1063/1.5011798
 11. Helmich-Paris,B.; de Souza,B.; Neese,F.; Izsk,R.
     An improved chain of spheres for exchange algorithm
     J. Chem. Phys., 2021 155 104109
     doi.org/doi: 10.1063/5.0058766.

List of suggested additional citations. These are papers that are important in the 'surrounding' of 
of this run, or papers that preceded the highly important papers. If you like your results we are grateful for a citation.

  1. Izsak,R.; Neese,F.
     An overlap fitted chain of spheres exchange method
     J. Chem. Phys., 2011 135 144105
     doi.org/10.1063/1.3646921
  2. Izsak,R.; Hansen,A.; Neese,F.
     The resolution of identity and chain of spheres approximations for the LPNO-CCSD singles Fock term
     Molec. Phys., 2012 110 2413-2417
     doi.org/10.1080/00268976.2012.687466
  3. Neese,F.
     The ORCA program system
     WIRES Comput. Molec. Sci., 2012 2(1)73-78
     doi.org/10.1002/wcms.81
  4. Izsak,R.; Neese,F.; Klopper,W.
     Robust fitting techniques in the chain of spheres approximation to the Fock exchange: The role of the complementary space
     J. Chem. Phys., 2013 139 
     doi.org/10.1063/1.4819264
  5. Neese,F.
     Software update: the ORCA program system, version 4.0
     WIRES Comput. Molec. Sci., 2018 8(1)1-6
     doi.org/10.1002/wcms.1327
  6. Neese,F.; Wennmohs,F.; Becker,U.; Riplinger,C.
     The ORCA quantum chemistry program package
     J. Chem. Phys., 2020 152 Art. No. L224108
     doi.org/10.1063/5.0004608
  7. Bistoni,G.
     Finding chemical concepts in the Hilbert space: Coupled cluster analyses of noncovalent interactions
     WIRES Comput. Molec. Sci., 2020 10(3)e1442
     doi.org/10.1002/wcms.1442

Timings for individual modules:

Sum of individual times         ...       48.696 sec (=   0.812 min)
GTO integral calculation        ...        2.138 sec (=   0.036 min)   4.4 %
SCF iterations                  ...        8.835 sec (=   0.147 min)  18.1 %
MDCI module                     ...       37.722 sec (=   0.629 min)  77.5 %
                             ****ORCA TERMINATED NORMALLY****
TOTAL RUN TIME: 0 days 0 hours 0 minutes 49 seconds 439 msec
