                                 *****************
                                 * O   R   C   A *
                                 *****************

                                            #,                                       
                                            ###                                      
                                            ####                                     
                                            #####                                    
                                            ######                                   
                                           ########,                                 
                                     ,,################,,,,,                         
                               ,,#################################,,                 
                          ,,##########################################,,             
                       ,#########################################, ''#####,          
                    ,#############################################,,   '####,        
                  ,##################################################,,,,####,       
                ,###########''''           ''''###############################       
              ,#####''   ,,,,##########,,,,          '''####'''          '####       
            ,##' ,,,,###########################,,,                        '##       
           ' ,,###''''                  '''############,,,                           
         ,,##''                                '''############,,,,        ,,,,,,###''
      ,#''                                            '''#######################'''  
     '                                                          ''''####''''         
             ,#######,   #######,   ,#######,      ##                                
            ,#'     '#,  ##    ##  ,#'     '#,    #''#        ######   ,####,        
            ##       ##  ##   ,#'  ##            #'  '#       #        #'  '#        
            ##       ##  #######   ##           ,######,      #####,   #    #        
            '#,     ,#'  ##    ##  '#,     ,#' ,#      #,         ##   #,  ,#        
             '#######'   ##     ##  '#######'  #'      '#     #####' # '####'        



                  #######################################################
                  #                        -***-                        #
                  #          Department of theory and spectroscopy      #
                  #    Directorship and core code : Frank Neese         #
                  #        Max Planck Institute fuer Kohlenforschung    #
                  #                Kaiser Wilhelm Platz 1               #
                  #                 D-45470 Muelheim/Ruhr               #
                  #                      Germany                        #
                  #                                                     #
                  #                  All rights reserved                #
                  #                        -***-                        #
                  #######################################################


                         Program Version 5.0  -  CURRENT   -
                                (GIT: $76ccee9ca$)
                ($2022-06-14 15:14:42 +0200 $)

                  !                     WARNING:                         !
                  !         This is a DEVELOPMENT version                !

                         (BUILD: $Mi 15. Jun 00:07:41 CEST 2022$)


 With contributions from (in alphabetic order):
   Daniel Aravena         : Magnetic Suceptibility
   Michael Atanasov       : Ab Initio Ligand Field Theory (pilot matlab implementation)
   Alexander A. Auer      : GIAO ZORA, VPT2 properties, NMR spectrum
   Ute Becker             : Parallelization
   Giovanni Bistoni       : ED, misc. LED, open-shell LED, HFLD
   Martin Brehm           : Molecular dynamics
   Dmytro Bykov           : SCF Hessian
   Vijay G. Chilkuri      : MRCI spin determinant printing, contributions to CSF-ICE
   Dipayan Datta          : RHF DLPNO-CCSD density
   Achintya Kumar Dutta   : EOM-CC, STEOM-CC
   Dmitry Ganyushin       : Spin-Orbit,Spin-Spin,Magnetic field MRCI
   Miquel Garcia          : C-PCM and meta-GGA Hessian, CC/C-PCM, Gaussian charge scheme
   Yang Guo               : DLPNO-NEVPT2, F12-NEVPT2, CIM, IAO-localization
   Andreas Hansen         : Spin unrestricted coupled pair/coupled cluster methods
   Benjamin Helmich-Paris : MC-RPA, TRAH-SCF, COSX integrals
   Lee Huntington         : MR-EOM, pCC
   Robert Izsak           : Overlap fitted RIJCOSX, COSX-SCS-MP3, EOM
   Marcus Kettner         : VPT2
   Christian Kollmar      : KDIIS, OOCD, Brueckner-CCSD(T), CCSD density, CASPT2, CASPT2-K, improved NEVPT2
   Simone Kossmann        : Meta GGA functionals, TD-DFT gradient, OOMP2, MP2 Hessian
   Martin Krupicka        : Initial AUTO-CI
   Lucas Lang             : DCDCAS
   Marvin Lechner         : AUTO-CI (C++ implementation), FIC-MRCC
   Dagmar Lenk            : GEPOL surface, SMD
   Dimitrios Liakos       : Extrapolation schemes; Compound Job, initial MDCI parallelization
   Dimitrios Manganas     : Further ROCIS development; embedding schemes
   Dimitrios Pantazis     : SARC Basis sets
   Anastasios Papadopoulos: AUTO-CI, single reference methods and gradients
   Taras Petrenko         : DFT Hessian,TD-DFT gradient, ASA, ECA, R-Raman, ABS, FL, XAS/XES, NRVS
   Peter Pinski           : DLPNO-MP2, DLPNO-MP2 Gradient
   Christoph Reimann      : Effective Core Potentials
   Marius Retegan         : Local ZFS, SOC
   Christoph Riplinger    : Optimizer, TS searches, QM/MM, DLPNO-CCSD(T), (RO)-DLPNO pert. Triples
   Tobias Risthaus        : Range-separated hybrids, TD-DFT gradient, RPA, STAB
   Michael Roemelt        : Original ROCIS implementation
   Masaaki Saitow         : Open-shell DLPNO-CCSD energy and density
   Barbara Sandhoefer     : DKH picture change effects
   Avijit Sen             : IP-ROCIS
   Kantharuban Sivalingam : CASSCF convergence, NEVPT2, FIC-MRCI
   Bernardo de Souza      : ESD, SOC TD-DFT
   Georgi Stoychev        : AutoAux, RI-MP2 NMR, DLPNO-MP2 response
   Willem Van den Heuvel  : Paramagnetic NMR
   Boris Wezisla          : Elementary symmetry handling
   Frank Wennmohs         : Technical directorship


 We gratefully acknowledge several colleagues who have allowed us to
 interface, adapt or use parts of their codes:
   Stefan Grimme, W. Hujo, H. Kruse, P. Pracht,  : VdW corrections, initial TS optimization,
                  C. Bannwarth, S. Ehlert          DFT functionals, gCP, sTDA/sTD-DF
   Ed Valeev, F. Pavosevic, A. Kumar             : LibInt (2-el integral package), F12 methods
   Garnet Chan, S. Sharma, J. Yang, R. Olivares  : DMRG
   Ulf Ekstrom                                   : XCFun DFT Library
   Mihaly Kallay                                 : mrcc  (arbitrary order and MRCC methods)
   Jiri Pittner, Ondrej Demel                    : Mk-CCSD
   Frank Weinhold                                : gennbo (NPA and NBO analysis)
   Christopher J. Cramer and Donald G. Truhlar   : smd solvation model
   Lars Goerigk                                  : TD-DFT with DH, B97 family of functionals
   V. Asgeirsson, H. Jonsson                     : NEB implementation
   FAccTs GmbH                                   : IRC, NEB, NEB-TS, DLPNO-Multilevel, CI-OPT
                                                   MM, QMMM, 2- and 3-layer-ONIOM, Crystal-QMMM,
                                                   LR-CPCM, SF, NACMEs, symmetry and pop. for TD-DFT,
                                                   nearIR, NL-DFT gradient (VV10), updates on ESD,
                                                   ML-optimized integration grids
   S Lehtola, MJT Oliveira, MAL Marques          : LibXC Library
   Liviu Ungur et al                             : ANISO software


 Your calculation uses the libint2 library for the computation of 2-el integrals
 For citations please refer to: http://libint.valeyev.net

 Your ORCA version has been built with support for libXC version: 5.2.2
 For citations please refer to: https://tddft.org/programs/libxc/

 This ORCA versions uses:
   CBLAS   interface :  Fast vector & matrix operations
   LAPACKE interface :  Fast linear algebra routines
   SCALAPACK package :  Parallel linear algebra routines
   Shared memory     :  Shared parallel matrices


================================================================================

----- Orbital basis set information -----
Your calculation utilizes the basis: aug-cc-pVQZ 
    H, B-Ne : Obtained from the ccRepo (grant-hill.group.shef.ac.uk/ccrepo) Feb. 2017
              R. A. Kendall, T. H. Dunning, Jr., R. J. Harrison, J. Chem. Phys. 96, 6796 (1992)
         He : Obtained from the ccRepo (grant-hill.group.shef.ac.uk/ccrepo) Feb. 2017
              D. E. Woon, T. H. Dunning, Jr., J. Chem. Phys. 100, 2975 (1994)
  Li-Be, Na : Obtained from the ccRepo (grant-hill.group.shef.ac.uk/ccrepo) Feb. 2017
              B. P. Prascher, D. E. Woon, K. A. Peterson, T. H. Dunning, Jr., A. K. Wilson, Theor. Chem. Acc. 128, 69 (2011)
         Mg : Obtained from the Peterson Research Group Website (tyr0.chem.wsu.edu/~kipeters) Feb. 2017
              B. P. Prascher, D. E. Woon, K. A. Peterson, T. H. Dunning, Jr., A. K. Wilson, Theor. Chem. Acc. 128, 69 (2011)
      Al-Ar : Obtained from the ccRepo (grant-hill.group.shef.ac.uk/ccrepo) Feb. 2017
              D. E. Woon, T. H. Dunning, Jr., J. Chem. Phys. 98, 1358 (1993)
      Sc-Zn : Obtained from the ccRepo (grant-hill.group.shef.ac.uk/ccrepo) Feb. 2017
              N. B. Balabanov, K. A. Peterson, J. Chem. Phys. 123, 064107 (2005)
              N. B. Balabanov, K. A. Peterson, J. Chem. Phys. 125, 074110 (2006)
      Ga-Kr : Obtained from the ccRepo (grant-hill.group.shef.ac.uk/ccrepo) Feb. 2017
              A. K. Wilson, D. E. Woon, K. A. Peterson, T. H. Dunning, Jr., J. Chem. Phys. 110, 7667 (1999)

----- AuxJ basis set information -----
----- AuxC basis set information -----
================================================================================
                                        WARNINGS
                       Please study these warnings very carefully!
================================================================================


WARNING: Post HF methods need fully converged wavefunctions
  ===> : Setting SCFConvForced true
         You can overwrite this default with %scf ConvForced false 


WARNING: MDCI localization with Augmented Hessian Foster-Boys
  ===> : Switching off randomization!

INFO   : the flag for use of the SHARK integral package has been found!

================================================================================
                                       INPUT FILE
================================================================================
NAME = frag4.inp
|  1> ! DLPNO-CCSD(T1) aug-cc-pVQZ DEFGRID3 RIJCOSX def2/J aug-cc-pV5Z/C verytightscf TightPNO 
|  2> 
|  3> %pal nprocs 4 end
|  4> %maxcore 4000
|  5> %scf maxiter 999 end
|  6> %basis auxj "autoaux" auxc "autoaux" autoauxlmax true end
|  7> %mdci TCutPNO 1e-7 printlevel 3 end
|  8> 
|  9> *xyz 0 1
| 10> O     3.364853284     1.252522284    -0.119963272
| 11> H     2.731853532     1.891821037    -0.517486897
| 12> H     4.212012919     1.443946099    -0.529713339
| 13> *
| 14> 
| 15>                          ****END OF INPUT****
================================================================================

                       ****************************
                       * Single Point Calculation *
                       ****************************

---------------------------------
CARTESIAN COORDINATES (ANGSTROEM)
---------------------------------
  O      3.364853    1.252522   -0.119963
  H      2.731854    1.891821   -0.517487
  H      4.212013    1.443946   -0.529713

----------------------------
CARTESIAN COORDINATES (A.U.)
----------------------------
  NO LB      ZA    FRAG     MASS         X           Y           Z
   0 O     8.0000    0    15.999    6.358651    2.366924   -0.226698
   1 H     1.0000    0     1.008    5.162455    3.575024   -0.977909
   2 H     1.0000    0     1.008    7.959551    2.728663   -1.001013

--------------------------------
INTERNAL COORDINATES (ANGSTROEM)
--------------------------------
 O      0   0   0     0.000000000000     0.00000000     0.00000000
 H      1   0   0     0.983573390273     0.00000000     0.00000000
 H      1   2   0     0.960321634417   105.41002432     0.00000000

---------------------------
INTERNAL COORDINATES (A.U.)
---------------------------
 O      0   0   0     0.000000000000     0.00000000     0.00000000
 H      1   0   0     1.858684340228     0.00000000     0.00000000
 H      1   2   0     1.814744889527   105.41002432     0.00000000

---------------------
BASIS SET INFORMATION
---------------------
There are 2 groups of distinct atoms

 Group   1 Type O   : 22s7p4d3f2g contracted to 6s5p4d3f2g pattern {991111/31111/1111/111/11}
 Group   2 Type H   : 7s4p3d2f contracted to 5s4p3d2f pattern {31111/1111/111/11}

Atom   0O    basis set group =>   1
Atom   1H    basis set group =>   2
Atom   2H    basis set group =>   2
---------------------------------
AUXILIARY/J BASIS SET INFORMATION
---------------------------------
There are 2 groups of distinct atoms

 Group   1 Type O   : 16s14p13d7f7g5h3i3j contracted to 16s14p13d7f7g5h3i3j pattern {1111111111111111/11111111111111/1111111111111/1111111/1111111/11111/111/111}
 Group   2 Type H   : 15s7p6d5f5g4h3i contracted to 15s7p6d5f5g4h3i pattern {111111111111111/1111111/111111/11111/11111/1111/111}

Atom   0O    basis set group =>   1
Atom   1H    basis set group =>   2
Atom   2H    basis set group =>   2
---------------------------------
AUXILIARY/C BASIS SET INFORMATION
---------------------------------
There are 2 groups of distinct atoms

 Group   1 Type O   : 16s14p13d7f7g5h3i3j contracted to 16s14p13d7f7g5h3i3j pattern {1111111111111111/11111111111111/1111111111111/1111111/1111111/11111/111/111}
 Group   2 Type H   : 15s7p6d5f5g4h3i contracted to 15s7p6d5f5g4h3i pattern {111111111111111/1111111/111111/11111/11111/1111/111}

Atom   0O    basis set group =>   1
Atom   1H    basis set group =>   2
Atom   2H    basis set group =>   2


           ************************************************************
           *        Program running with 4 parallel MPI-processes     *
           *              working on a common directory               *
           ************************************************************
------------------------------------------------------------------------------
                           ORCA GTO INTEGRAL CALCULATION
                           -- RI-GTO INTEGRALS CHOSEN --
------------------------------------------------------------------------------
------------------------------------------------------------------------------
                   ___                                                        
                  /   \      - P O W E R E D   B Y -                         
                 /     \                                                     
                 |  |  |   _    _      __       _____    __    __             
                 |  |  |  | |  | |    /  \     |  _  \  |  |  /  |          
                  \  \/   | |  | |   /    \    | | | |  |  | /  /          
                 / \  \   | |__| |  /  /\  \   | |_| |  |  |/  /          
                |  |  |   |  __  | /  /__\  \  |    /   |      \           
                |  |  |   | |  | | |   __   |  |    \   |  |\   \          
                \     /   | |  | | |  |  |  |  | |\  \  |  | \   \       
                 \___/    |_|  |_| |__|  |__|  |_| \__\ |__|  \__/        
                                                                              
                      - O R C A' S   B I G   F R I E N D -                    
                                      &                                       
                       - I N T E G R A L  F E E D E R -                       
                                                                              
 v1 FN, 2020, v2 2021                                                         
------------------------------------------------------------------------------


Reading SHARK input file frag4.SHARKINP.tmp ... ok
Calculating pre-screening integrals         ... done (  0.0 sec) Dimension = 55
Calculating pre-screening integrals (ORCA)  ... done (  0.1 sec) Dimension = 48
Organizing shell pair data                  ... done (  0.0 sec)
Shell pair information
Total number of shell pairs                 ...      1540
Shell pairs after pre-screening             ...      1540
Total number of primitive shell pairs       ...      1900
Primitive shell pairs kept                  ...      1870
          la=0 lb=0:    276 shell pairs
          la=1 lb=0:    299 shell pairs
          la=1 lb=1:     91 shell pairs
          la=2 lb=0:    230 shell pairs
          la=2 lb=1:    130 shell pairs
          la=2 lb=2:     55 shell pairs
          la=3 lb=0:    161 shell pairs
          la=3 lb=1:     91 shell pairs
          la=3 lb=2:     70 shell pairs
          la=3 lb=3:     28 shell pairs
          la=4 lb=0:     46 shell pairs
          la=4 lb=1:     26 shell pairs
          la=4 lb=2:     20 shell pairs
          la=4 lb=3:     14 shell pairs
          la=4 lb=4:      3 shell pairs

Calculating one electron integrals          ... done (  0.0 sec)
Calculating RI/J V-Matrix + Cholesky decomp.... done (  0.2 sec)
Calculating RI/C V-Matrix + Cholesky decomp.... done (  0.1 sec)
Calculating Nuclear repulsion               ... done (  0.0 sec) ENN=      9.054633695232 Eh

SHARK setup successfully completed in   0.6 seconds

Maximum memory used throughout the entire GTOINT-calculation: 48.6 MB


           ************************************************************
           *        Program running with 4 parallel MPI-processes     *
           *              working on a common directory               *
           ************************************************************
-------------------------------------------------------------------------------
                                 ORCA SCF
-------------------------------------------------------------------------------

------------
SCF SETTINGS
------------
Hamiltonian:
 Ab initio Hamiltonian  Method          .... Hartree-Fock(GTOs)
 RI-approximation to the Coulomb term is turned on
   Number of AuxJ basis functions       .... 832
   RIJ-COSX (HFX calculated with COS-X)).... on


General Settings:
 Integral files         IntName         .... frag4
 Hartree-Fock type      HFTyp           .... RHF
 Total Charge           Charge          ....    0
 Multiplicity           Mult            ....    1
 Number of Electrons    NEL             ....   10
 Basis Dimension        Dim             ....  172
 Nuclear Repulsion      ENuc            ....      9.0546336952 Eh

Convergence Acceleration:
 DIIS                   CNVDIIS         .... on
   Start iteration      DIISMaxIt       ....    12
   Startup error        DIISStart       ....  0.200000
   # of expansion vecs  DIISMaxEq       ....     5
   Bias factor          DIISBfac        ....   1.050
   Max. coefficient     DIISMaxC        ....  10.000
 Trust-Rad. Augm. Hess. CNVTRAH         .... auto
   Auto Start mean grad. ratio tolernc. ....  1.125000
   Auto Start start iteration           ....    20
   Auto Start num. interpolation iter.  ....    10
   Max. Number of Micro iterations      ....    24
   Max. Number of Macro iterations      .... Maxiter - #DIIS iter
   Max. Number of back steps            ....     5
   Number of Davidson start vectors     ....     2
   Converg. threshold I  (grad. norm)   ....   2.000e-06
   Converg. threshold II (energy diff.) ....   1.000e-09
   Grad. Scal. Fac. for Micro threshold ....   0.100
   Minimum threshold for Micro iter.    ....   1.000e-02
   NR start threshold (gradient norm)   ....   1.000e-04
   Initial trust radius                 ....   0.400
   Minimum AH scaling param. (alpha)    ....   1.000
   Maximum AH scaling param. (alpha)    .... 1000.000
   Inactive MOs                         .... canonicalized
   Orbital update algorithm             .... Taylor
   White noise on init. David. guess    .... on
   Maximum white noise                  ....   0.010
   Quad. conv. algorithm                .... NR
   Preconditioner                       .... approx. diagonal
 SOSCF                  CNVSOSCF        .... on
   Start iteration      SOSCFMaxIt      ....   150
   Startup grad/error   SOSCFStart      ....  0.003300
 Level Shifting         CNVShift        .... on
   Level shift para.    LevelShift      ....    0.2500
   Turn off err/grad.   ShiftErr        ....    0.0010
 Zerner damping         CNVZerner       .... off
 Static damping         CNVDamp         .... on
   Fraction old density DampFac         ....    0.7000
   Max. Damping (<1)    DampMax         ....    0.9800
   Min. Damping (>=0)   DampMin         ....    0.0000
   Turn off err/grad.   DampErr         ....    0.1000

SCF Procedure:
 Maximum # iterations   MaxIter         ....   999
 SCF integral mode      SCFMode         .... Direct
   Integral package                     .... SHARK and LIBINT hybrid scheme
 Reset frequency        DirectResetFreq ....    20
 Integral Threshold     Thresh          ....  1.000e-12 Eh
 Primitive CutOff       TCut            ....  1.000e-14 Eh

Convergence Tolerance:
 Convergence Check Mode ConvCheckMode   .... Total+1el-Energy
 Convergence forced     ConvForced      .... 1
 Energy Change          TolE            ....  1.000e-09 Eh
 1-El. energy change                    ....  1.000e-06 Eh
 Orbital Gradient       TolG            ....  2.000e-06
 Orbital Rotation angle TolX            ....  2.000e-06
 DIIS Error             TolErr          ....  1.000e-08


Diagonalization of the overlap matrix:
Smallest eigenvalue                        ... 9.007e-05
Time for diagonalization                   ...    0.021 sec
Threshold for overlap eigenvalues          ... 1.000e-08
Number of eigenvalues below threshold      ... 0
Time for construction of square roots      ...    0.005 sec
Total time needed                          ...    0.027 sec

Time for model grid setup =    0.011 sec

------------------------------
INITIAL GUESS: MODEL POTENTIAL
------------------------------
Loading Hartree-Fock densities                     ... done
Calculating cut-offs                               ... done
Initializing the effective Hamiltonian             ... done
Setting up the integral package (SHARK)            ... done
Starting the Coulomb interaction                   ... done (   0.0 sec)
Reading the grid                                   ... done
Mapping shells                                     ... done
Starting the XC term evaluation                    ... done (   0.0 sec)
Transforming the Hamiltonian                       ... done (   0.0 sec)
Diagonalizing the Hamiltonian                      ... done (   0.0 sec)
Back transforming the eigenvectors                 ... done (   0.0 sec)
Now organizing SCF variables                       ... done
                      ------------------
                      INITIAL GUESS DONE (   0.1 sec)
                      ------------------
--------------------
COSX GRID GENERATION
--------------------

GRIDX 1
-------
General Integration Accuracy     IntAcc      ... 4.020
Radial Grid Type                 RadialGrid  ... OptM3 with GC (2021)
Angular Grid (max. ang.)         AngularGrid ... 2 (Lebedev-110)
Angular grid pruning method      GridPruning ... 4 (adaptive)
Weight generation scheme         WeightScheme... Becke
Basis function cutoff            BFCut       ... 1.0000e-12
Integration weight cutoff        WCut        ... 1.0000e-14
Angular grids for H and He will be reduced by one unit
Partially contracted basis set               ... on
Rotationally invariant grid construction     ... off

Total number of grid points                  ...     4171
Total number of batches                      ...       67
Average number of points per batch           ...       62
Average number of grid points per atom       ...     1390
UseSFitting                                  ... on

GRIDX 2
-------
General Integration Accuracy     IntAcc      ... 4.338
Radial Grid Type                 RadialGrid  ... OptM3 with GC (2021)
Angular Grid (max. ang.)         AngularGrid ... 3 (Lebedev-194)
Angular grid pruning method      GridPruning ... 4 (adaptive)
Weight generation scheme         WeightScheme... Becke
Basis function cutoff            BFCut       ... 1.0000e-12
Integration weight cutoff        WCut        ... 1.0000e-14
Angular grids for H and He will be reduced by one unit
Partially contracted basis set               ... on
Rotationally invariant grid construction     ... off

Total number of grid points                  ...     9557
Total number of batches                      ...      150
Average number of points per batch           ...       63
Average number of grid points per atom       ...     3186
UseSFitting                                  ... on

GRIDX 3
-------
General Integration Accuracy     IntAcc      ... 4.871
Radial Grid Type                 RadialGrid  ... OptM3 with GC (2021)
Angular Grid (max. ang.)         AngularGrid ... 4 (Lebedev-302)
Angular grid pruning method      GridPruning ... 4 (adaptive)
Weight generation scheme         WeightScheme... Becke
Basis function cutoff            BFCut       ... 1.0000e-12
Integration weight cutoff        WCut        ... 1.0000e-14
Angular grids for H and He will be reduced by one unit
Partially contracted basis set               ... on
Rotationally invariant grid construction     ... off

Total number of grid points                  ...    18695
Total number of batches                      ...      293
Average number of points per batch           ...       63
Average number of grid points per atom       ...     6232
UseSFitting                                  ... on

Time for X-Grid setup             =    0.172 sec

 re-compute Schwartz prescreening matrix in partially contracted basis (1) ...done (   0.055 sec)
--------------
SCF ITERATIONS
--------------
ITER       Energy         Delta-E        Max-DP      RMS-DP      [F,P]     Damp
               ***  Starting incremental Fock matrix formation  ***
  0    -75.9618046496   0.000000000000 0.02819178  0.00054810  0.4031205 0.7000
  1    -76.0028349253  -0.041030275671 0.01862384  0.00037237  0.2387723 0.7000
                               ***Turning on DIIS***
  2    -76.0240209578  -0.021186032570 0.01385736  0.00021646  0.1334182 0.7000
  3    -76.1860723045  -0.162051346694 0.03517960  0.00042874  0.0761005 0.0000
  4    -76.0437454265   0.142326878006 0.00387406  0.00006623  0.0110323 0.0000
                      *** Initiating the SOSCF procedure ***
                           *** Shutting down DIIS ***
                      *** Re-Reading the Fockian *** 
                      *** Removing any level shift *** 
ITER       Energy         Delta-E        Max-DP      RMS-DP   
  5    -76.0646429624  -0.020897535840 0.00155834  0.00003089
               *** Restarting incremental Fock matrix formation ***
  6    -76.0643105988   0.000332363574 0.00069590  0.00001785
  7    -76.0643162605  -0.000005661701 0.00054788  0.00001007
  8    -76.0643175148  -0.000001254285 0.00008229  0.00000206
  9    -76.0643176119  -0.000000097087 0.00002065  0.00000048
 10    -76.0643176312  -0.000000019353 0.00000598  0.00000015
 11    -76.0643176332  -0.000000001988 0.00000182  0.00000005
 12    -76.0643176333  -0.000000000064 0.00000021  0.00000001
                 **** Energy Check signals convergence ****
              ***Rediagonalizing the Fockian in SOSCF/NRSCF***

               *****************************************************
               *                     SUCCESS                       *
               *           SCF CONVERGED AFTER  13 CYCLES          *
               *****************************************************

Old exchange energy                            =     -8.930126605 Eh
New exchange energy                            =     -8.930133488 Eh
Exchange energy change after final integration =     -0.000006884 Eh
Total energy after final integration           =    -76.064324517 Eh
Final COS-X integration done in                =     0.917 sec

----------------
TOTAL SCF ENERGY
----------------

Total Energy       :          -76.06432452 Eh           -2069.81550 eV

Components:
Nuclear Repulsion  :            9.05463370 Eh             246.38911 eV
Electronic Energy  :          -85.11895821 Eh           -2316.20461 eV
One Electron Energy:         -122.81231855 Eh           -3341.89309 eV
Two Electron Energy:           37.69336033 Eh            1025.68848 eV
Max COSX asymmetry :            0.00000050 Eh               0.00001 eV

Virial components:
Potential Energy   :         -152.00042144 Eh           -4136.14174 eV
Kinetic Energy     :           75.93609692 Eh            2066.32625 eV
Virial Ratio       :            2.00168863


---------------
SCF CONVERGENCE
---------------

  Last Energy change         ...    8.2423e-11  Tolerance :   1.0000e-09
  Last MAX-Density change    ...    4.4409e-16  Tolerance :   1.0000e-08
  Last RMS-Density change    ...    5.3870e-18  Tolerance :   1.0000e-09

             **** THE GBW FILE WAS UPDATED (frag4.gbw) ****
             **** DENSITY frag4.scfp WAS UPDATED ****
             **** ENERGY FILE WAS UPDATED (frag4.en.tmp) ****
             **** THE GBW FILE WAS UPDATED (frag4.gbw) ****
             **** DENSITY frag4.scfp WAS UPDATED ****
             **** ENERGY FILE WAS UPDATED (frag4.en.tmp) ****
----------------
ORBITAL ENERGIES
----------------

  NO   OCC          E(Eh)            E(eV) 
   0   2.0000     -20.566895      -559.6537 
   1   2.0000      -1.344887       -36.5962 
   2   2.0000      -0.711562       -19.3626 
   3   2.0000      -0.580401       -15.7935 
   4   2.0000      -0.509049       -13.8519 
   5   0.0000       0.026833         0.7301 
   6   0.0000       0.042979         1.1695 
   7   0.0000       0.114240         3.1086 
   8   0.0000       0.133767         3.6400 
   9   0.0000       0.150519         4.0958 
  10   0.0000       0.158386         4.3099 
  11   0.0000       0.184723         5.0266 
  12   0.0000       0.196729         5.3533 
  13   0.0000       0.208861         5.6834 
  14   0.0000       0.238029         6.4771 
  15   0.0000       0.257592         7.0094 
  16   0.0000       0.290747         7.9116 
  17   0.0000       0.355032         9.6609 
  18   0.0000       0.387921        10.5559 
  19   0.0000       0.469946        12.7879 
  20   0.0000       0.507603        13.8126 
  21   0.0000       0.542212        14.7543 
  22   0.0000       0.546260        14.8645 
  23   0.0000       0.555995        15.1294 
  24   0.0000       0.613173        16.6853 
  25   0.0000       0.633858        17.2482 
  26   0.0000       0.647656        17.6236 
  27   0.0000       0.663515        18.0552 
  28   0.0000       0.667266        18.1572 
  29   0.0000       0.686370        18.6771 
  30   0.0000       0.706420        19.2227 
  31   0.0000       0.715868        19.4797 
  32   0.0000       0.768251        20.9052 
  33   0.0000       0.781759        21.2727 
  34   0.0000       0.801054        21.7978 
  35   0.0000       0.803480        21.8638 
  36   0.0000       0.844853        22.9896 
  37   0.0000       0.855491        23.2791 
  38   0.0000       0.969943        26.3935 
  39   0.0000       1.130514        30.7628 
  40   0.0000       1.133525        30.8448 
  41   0.0000       1.205911        32.8145 
  42   0.0000       1.329127        36.1674 
  43   0.0000       1.426789        38.8249 
  44   0.0000       1.476036        40.1650 
  45   0.0000       1.507870        41.0312 
  46   0.0000       1.509776        41.0831 
  47   0.0000       1.527945        41.5775 
  48   0.0000       1.553888        42.2834 
  49   0.0000       1.596081        43.4316 
  50   0.0000       1.617098        44.0035 
  51   0.0000       1.632350        44.4185 
  52   0.0000       1.663650        45.2702 
  53   0.0000       1.665000        45.3069 
  54   0.0000       1.691394        46.0252 
  55   0.0000       1.703118        46.3442 
  56   0.0000       1.730150        47.0798 
  57   0.0000       1.756524        47.7975 
  58   0.0000       1.771543        48.2061 
  59   0.0000       1.779111        48.4121 
  60   0.0000       1.833626        49.8955 
  61   0.0000       1.866428        50.7881 
  62   0.0000       1.887086        51.3502 
  63   0.0000       1.907664        51.9102 
  64   0.0000       1.966151        53.5017 
  65   0.0000       2.013585        54.7924 
  66   0.0000       2.033784        55.3421 
  67   0.0000       2.034983        55.3747 
  68   0.0000       2.105576        57.2956 
  69   0.0000       2.208526        60.0970 
  70   0.0000       2.219796        60.4037 
  71   0.0000       2.304993        62.7221 
  72   0.0000       2.448885        66.6376 
  73   0.0000       2.616120        71.1882 
  74   0.0000       2.621185        71.3261 
  75   0.0000       2.871552        78.1389 
  76   0.0000       2.940934        80.0269 
  77   0.0000       2.991716        81.4087 
  78   0.0000       3.030573        82.4661 
  79   0.0000       3.048275        82.9478 
  80   0.0000       3.076060        83.7038 
  81   0.0000       3.260011        88.7094 
  82   0.0000       3.274737        89.1101 
  83   0.0000       3.293044        89.6083 
  84   0.0000       3.497072        95.1602 
  85   0.0000       3.589433        97.6734 
  86   0.0000       3.640270        99.0568 
  87   0.0000       3.686142       100.3050 
  88   0.0000       3.704121       100.7943 
  89   0.0000       3.746459       101.9463 
  90   0.0000       3.924387       106.7880 
  91   0.0000       4.074615       110.8759 
  92   0.0000       4.164152       113.3123 
  93   0.0000       4.173325       113.5619 
  94   0.0000       4.176843       113.6577 
  95   0.0000       4.181320       113.7795 
  96   0.0000       4.246268       115.5468 
  97   0.0000       4.325414       117.7005 
  98   0.0000       4.432363       120.6107 
  99   0.0000       4.559130       124.0602 
 100   0.0000       4.679011       127.3224 
 101   0.0000       4.738713       128.9469 
 102   0.0000       4.780925       130.0956 
 103   0.0000       4.787542       130.2756 
 104   0.0000       4.805338       130.7599 
 105   0.0000       4.864831       132.3788 
 106   0.0000       4.990790       135.8063 
 107   0.0000       5.243261       142.6764 
 108   0.0000       5.311561       144.5349 
 109   0.0000       5.492143       149.4488 
 110   0.0000       5.495718       149.5461 
 111   0.0000       5.833043       158.7252 
 112   0.0000       5.857000       159.3771 
 113   0.0000       6.055403       164.7759 
 114   0.0000       6.196770       168.6227 
 115   0.0000       6.820477       185.5946 
 116   0.0000       6.847352       186.3259 
 117   0.0000       6.856523       186.5755 
 118   0.0000       6.916683       188.2125 
 119   0.0000       7.676649       208.8922 
 120   0.0000       7.754260       211.0041 
 121   0.0000       7.781469       211.7445 
 122   0.0000       7.783555       211.8013 
 123   0.0000       7.826022       212.9569 
 124   0.0000       7.889166       214.6751 
 125   0.0000       7.928721       215.7515 
 126   0.0000       8.005458       217.8396 
 127   0.0000       8.172121       222.3747 
 128   0.0000       8.238548       224.1823 
 129   0.0000       8.502985       231.3780 
 130   0.0000       8.617602       234.4969 
 131   0.0000       8.639669       235.0974 
 132   0.0000       8.723964       237.3911 
 133   0.0000       8.740965       237.8537 
 134   0.0000       8.833928       240.3834 
 135   0.0000       8.993002       244.7120 
 136   0.0000       9.027995       245.6642 
 137   0.0000       9.156272       249.1548 
 138   0.0000       9.593998       261.0660 
 139   0.0000       9.809628       266.9335 
 140   0.0000       9.857272       268.2300 
 141   0.0000       9.876310       268.7480 
 142   0.0000       9.972710       271.3712 
 143   0.0000      10.311489       280.5899 
 144   0.0000      10.422880       283.6210 
 145   0.0000      10.727208       291.9022 
 146   0.0000      10.995414       299.2004 
 147   0.0000      11.044629       300.5396 
 148   0.0000      11.133778       302.9655 
 149   0.0000      11.267386       306.6012 
 150   0.0000      11.310289       307.7686 
 151   0.0000      11.400162       310.2142 
 152   0.0000      11.678078       317.7767 
 153   0.0000      11.769304       320.2591 
 154   0.0000      11.836611       322.0906 
 155   0.0000      11.969541       325.7078 
 156   0.0000      12.156419       330.7930 
 157   0.0000      12.182109       331.4920 
 158   0.0000      12.539214       341.2094 
 159   0.0000      12.668955       344.7398 
 160   0.0000      12.758847       347.1859 
 161   0.0000      12.872510       350.2788 
 162   0.0000      13.189145       358.8949 
 163   0.0000      13.858796       377.1170 
 164   0.0000      13.964822       380.0021 
 165   0.0000      14.368089       390.9756 
 166   0.0000      14.733016       400.9057 
 167   0.0000      14.785074       402.3223 
 168   0.0000      15.131703       411.7546 
 169   0.0000      16.742974       455.5995 
 170   0.0000      17.184717       467.6199 
 171   0.0000      45.358788      1234.2754 

                    ********************************
                    * MULLIKEN POPULATION ANALYSIS *
                    ********************************

-----------------------
MULLIKEN ATOMIC CHARGES
-----------------------
   0 O :   -0.597864
   1 H :    0.305479
   2 H :    0.292384
Sum of atomic charges:    0.0000000

--------------------------------
MULLIKEN REDUCED ORBITAL CHARGES
--------------------------------
  0 O s       :     3.868036  s :     3.868036
      pz      :     1.715633  p :     4.691886
      px      :     1.315256
      py      :     1.660997
      dz2     :     0.001947  d :     0.033592
      dxz     :     0.011134
      dyz     :     0.006584
      dx2y2   :     0.004363
      dxy     :     0.009564
      f0      :     0.000837  f :     0.003814
      f+1     :     0.000076
      f-1     :     0.000089
      f+2     :     0.000622
      f-2     :     0.001030
      f+3     :     0.000654
      f-3     :     0.000506
      g0      :     0.000026  g :     0.000535
      g+1     :     0.000108
      g-1     :     0.000041
      g+2     :     0.000002
      g-2     :     0.000000
      g+3     :     0.000106
      g-3     :     0.000081
      g+4     :     0.000115
      g-4     :     0.000056
  1 H s       :     0.594155  s :     0.594155
      pz      :     0.034054  p :     0.088115
      px      :     0.023867
      py      :     0.030195
      dz2     :     0.003039  d :     0.012744
      dxz     :     0.003009
      dyz     :     0.001190
      dx2y2   :     0.004810
      dxy     :     0.000696
      f0      :    -0.000067  f :    -0.000494
      f+1     :    -0.000137
      f-1     :     0.000177
      f+2     :     0.000034
      f-2     :     0.000003
      f+3     :    -0.000176
      f-3     :    -0.000328
  2 H s       :     0.600699  s :     0.600699
      pz      :     0.036802  p :     0.093861
      px      :     0.021829
      py      :     0.035231
      dz2     :     0.003665  d :     0.013536
      dxz     :     0.003724
      dyz     :     0.000548
      dx2y2   :     0.000322
      dxy     :     0.005277
      f0      :    -0.000062  f :    -0.000481
      f+1     :     0.000039
      f-1     :     0.000058
      f+2     :    -0.000062
      f-2     :     0.000067
      f+3     :    -0.000323
      f-3     :    -0.000198


                     *******************************
                     * LOEWDIN POPULATION ANALYSIS *
                     *******************************

----------------------
LOEWDIN ATOMIC CHARGES
----------------------
   0 O :    1.568576
   1 H :   -0.758897
   2 H :   -0.809680

-------------------------------
LOEWDIN REDUCED ORBITAL CHARGES
-------------------------------
  0 O s       :     2.891514  s :     2.891514
      pz      :     1.207104  p :     3.449882
      px      :     1.055412
      py      :     1.187366
      dz2     :     0.004885  d :     0.070069
      dxz     :     0.022567
      dyz     :     0.005037
      dx2y2   :     0.015123
      dxy     :     0.022456
      f0      :     0.002536  f :     0.017206
      f+1     :     0.000554
      f-1     :     0.000513
      f+2     :     0.003394
      f-2     :     0.005068
      f+3     :     0.002760
      f-3     :     0.002380
      g0      :     0.000131  g :     0.002753
      g+1     :     0.000578
      g-1     :     0.000196
      g+2     :     0.000071
      g-2     :     0.000051
      g+3     :     0.000514
      g-3     :     0.000416
      g+4     :     0.000510
      g-4     :     0.000285
  1 H s       :     0.574957  s :     0.574957
      pz      :     0.175814  p :     0.556689
      px      :     0.174472
      py      :     0.206403
      dz2     :     0.066958  d :     0.422661
      dxz     :     0.070765
      dyz     :     0.069801
      dx2y2   :     0.130269
      dxy     :     0.084868
      f0      :     0.011437  f :     0.204590
      f+1     :     0.032225
      f-1     :     0.026697
      f+2     :     0.019766
      f-2     :     0.032615
      f+3     :     0.043483
      f-3     :     0.038367
  2 H s       :     0.585474  s :     0.585474
      pz      :     0.188161  p :     0.585265
      px      :     0.231290
      py      :     0.165814
      dz2     :     0.073388  d :     0.433920
      dxz     :     0.118877
      dyz     :     0.024762
      dx2y2   :     0.090248
      dxy     :     0.126645
      f0      :     0.010870  f :     0.205021
      f+1     :     0.058873
      f-1     :     0.002536
      f+2     :     0.029017
      f-2     :     0.024693
      f+3     :     0.032131
      f-3     :     0.046901


                      *****************************
                      * MAYER POPULATION ANALYSIS *
                      *****************************

  NA   - Mulliken gross atomic population
  ZA   - Total nuclear charge
  QA   - Mulliken gross atomic charge
  VA   - Mayer's total valence
  BVA  - Mayer's bonded valence
  FA   - Mayer's free valence

  ATOM       NA         ZA         QA         VA         BVA        FA
  0 O      8.5979     8.0000    -0.5979     1.9243     1.9243     0.0000
  1 H      0.6945     1.0000     0.3055     0.9790     0.9790     0.0000
  2 H      0.7076     1.0000     0.2924     0.9937     0.9937     0.0000

  Mayer bond orders larger than 0.100000
B(  0-O ,  1-H ) :   0.9548 B(  0-O ,  2-H ) :   0.9695 

-------
TIMINGS
-------

Total SCF time: 0 days 0 hours 0 min 7 sec 

Total time                  ....       7.748 sec
Sum of individual times     ....      13.396 sec  (172.9%)

Fock matrix formation       ....      13.004 sec  (167.8%)
  Split-RI-J                ....       1.950 sec  ( 15.0% of F)
  Chain of spheres X        ....       5.146 sec  ( 39.6% of F)
Diagonalization             ....       0.047 sec  (  0.6%)
Density matrix formation    ....       0.004 sec  (  0.1%)
Population analysis         ....       0.008 sec  (  0.1%)
Initial guess               ....       0.040 sec  (  0.5%)
Orbital Transformation      ....       0.000 sec  (  0.0%)
Orbital Orthonormalization  ....       0.000 sec  (  0.0%)
DIIS solution               ....       0.049 sec  (  0.6%)
SOSCF solution              ....       0.062 sec  (  0.8%)

Maximum memory used throughout the entire SCF-calculation: 83.1 MB


           ************************************************************
           *        Program running with 4 parallel MPI-processes     *
           *              working on a common directory               *
           ************************************************************


--------------------------------------------------------------------------------
                             ORCA-MATRIX DRIVEN CI
--------------------------------------------------------------------------------


Wavefunction type
-----------------
Correlation treatment                      ...      CCSD     
Single excitations                         ... ON
Orbital optimization                       ... OFF
Calculation of Z vector                    ... OFF
Calculation of Brueckner orbitals          ... OFF
Perturbative triple excitations            ... ON
Calculation of F12 correction              ... OFF
Frozen core treatment                      ... chemical core (2 el)
Reference Wavefunction                     ... RHF
  Internal Orbitals:     1 ...    4 (  4 MO's/  8 electrons)
  Virtual  Orbitals:     5 ...  171 (167 MO's              )
Number of AO's                             ...    172
Number of electrons                        ...     10
Number of correlated electrons             ...      8

Algorithmic settings
--------------------
Integral transformation                    ... All integrals via the RI transformation
K(C) Formation                             ... RI-DLPNO
   PNO-Integral Storage                    ... ON DISK
   PNO occupation number cut-off           ... 1.000e-07
   Singles PNO occupation number cut-off   ... 3.000e-09
   PNO Mulliken prescreening cut-off       ... 1.000e-03
   Domain cut-off (Mulliken population)    ... 1.000e-03
   PNO Normalization                       ...    1
Maximum number of iterations               ...        50
Convergence tolerance (max. residuum)      ... 1.000e-06
Level shift for amplitude update           ... 2.000e-01
Maximum number of DIIS vectors             ...         7
DIIS turned on at iteration                ...         0
Damping before turning on DIIS             ...     0.500
Damping after turning on DIIS              ...     0.000
Pair specific amplitude update             ... OFF
Natural orbital iterations                 ... OFF
Perturbative natural orbital generation    ... OFF
Printlevel                                 ... 3

Singles Fock matrix elements calculated using PNOs.

Memory handling:
----------------
Maximum memory for working arrays          ...   4000 MB
Data storage in matrix containers          ... UNCOMPRESSED
Data type for integral storage             ... DOUBLE
In-Core Storage of quantities:
   Amplitudes+Sigma Vector      ... NO
   J+K operators                ... NO
   DIIS vectors                 ... NO
   3-external integrals         ... NO
   4-external integrals         ... NO

Localization treatment:
-----------------------
Localization option                        ...    6
Localization threshhold                    ... -1.0e+00
Using relative localization threshhold     ... 1.0e-08
Neglect threshold for strong pairs         ... 1.000e-05 Eh
Prescreening threshold for very weak pairs ... 1.000e-07 Eh

Initializing the integral package          ... done
Localizing the valence orbitals
Localizing the valence orbitals
------------------------------------------------------------------------------
                           ORCA ORBITAL LOCALIZATION
------------------------------------------------------------------------------

Input orbitals are from                  ... frag4.gbw
Output orbitals are to                   ... frag4.loc
Max. number of iterations                ... 128
Localizations seeded randomly            ... off
Convergence tolerance                    ... 2.000e-07
Using relative localization threshhold   ... 1.000e-08
Threshold for strong local MOs           ... 9.500e-01
Threshold for bond MOs                   ... 8.500e-01
Operator                                 ... 0
Orbital range for localization           ... 1 to 4
Localization criterion                   ... FOSTER-BOYS (AUGMENTED HESSIAN)
Doing the dipole integrals     ... o.k.
Initial value of the localization sum :   189.127997
ITERATION   0 : L=  190.7373103565 DL=  1.61e+00 (AVERGE_DL)=    0.5178985938 
ITERATION   1 : L=  191.0544319322 DL=  3.17e-01 (AVERGE_DL)=    0.2298990995 
ITERATION   2 : L=  191.2059412060 DL=  1.52e-01 (AVERGE_DL)=    0.1589073492 
ITERATION   3 : L=  191.2126094917 DL=  6.67e-03 (AVERGE_DL)=    0.0333373809 
ITERATION   4 : L=  191.2131894863 DL=  5.80e-04 (AVERGE_DL)=    0.0098318746 
ITERATION   5 : L=  191.2132519590 DL=  6.25e-05 (AVERGE_DL)=    0.0032267817 
ITERATION   6 : L=  191.2132579138 DL=  5.95e-06 (AVERGE_DL)=    0.0009962268 
ITERATION   7 : L=  191.2132584861 DL=  5.72e-07 (AVERGE_DL)=    0.0003088252 
LOCALIZATION SUM CONVERGED

------------------------------------------------------
AUGMENTED HESSIAN OPTIMIZATION OF FOSTER-BOYS ORBITALS
------------------------------------------------------

Spin operator:           0
Orbital window:          1 to 4
Number of iterations:    128
Gradient tolerance:      2.000e-07
Number of pairs:         6
Davidson threshold:      2000
Diagonalization method:  LAPACK
Iter:    0   L: 191.2132584861   Grad. norm: 4.532187e-04
   *** Likely close to a maximum now. ***
       Augmented Hessian eigenvalues:  1.19e-07 -1.28e+00 -3.21e+00 -4.70e+00 ... 
Iter:    1   L: 191.2132585453   Grad. norm: 5.764875e-08
LOCALIZATION HAS CONVERGED.

Eigenvalues of the Hessian:
  0 -1.279e+00
  1 -3.211e+00
  2 -4.700e+00
  3 -5.337e+00
  4 -7.202e+00
  5 -9.691e+00


--------------------------------------------------------------------------------
                    LOCALIZED MOLECULAR ORBITAL COMPOSITIONS
--------------------------------------------------------------------------------

The Mulliken populations for each LMO on each atom are computed
The LMO`s will be ordered according to atom index and type
  (A) Strongly localized MO`s have populations of >=0.950 on one atom
  (B) Two center bond orbitals have populations of >=0.850 on two atoms
  (C) Other MO`s are considered to be `delocalized`

FOUND  -   2 strongly local MO`s
       -   2 two center bond MO`s
       -   0 significantly delocalized MO`s

Rather strongly localized orbitals:
MO   2:   0O  -   1.002350
MO   1:   0O  -   1.002082
Bond-like localized orbitals:
MO   4:   2H  -   0.353281  and   0O  -   0.644458
MO   3:   1H  -   0.346892  and   0O  -   0.650565
Localized MO's were stored in: frag4.loc

Localizing the core orbitals
------------------------------------------------------------------------------
                           ORCA ORBITAL LOCALIZATION
------------------------------------------------------------------------------

Input orbitals are from                  ... frag4.loc
Output orbitals are to                   ... frag4.loc
Max. number of iterations                ... 128
Localizations seeded randomly            ... off
Convergence tolerance                    ... 2.000e-07
Using relative localization threshhold   ... 1.000e-08
Threshold for strong local MOs           ... 9.500e-01
Threshold for bond MOs                   ... 8.500e-01
Operator                                 ... 0
Orbital range for localization           ... 0 to 0
Localization criterion                   ... FOSTER-BOYS (AUGMENTED HESSIAN)
Doing the dipole integrals     ... o.k.

ORCA_LOC: ONLY ONE ORBITAL - SKIPPING LOCALIZATION


--------------------------------------------------------------------------------
                    LOCALIZED MOLECULAR ORBITAL COMPOSITIONS
--------------------------------------------------------------------------------

The Mulliken populations for each LMO on each atom are computed
The LMO`s will be ordered according to atom index and type
  (A) Strongly localized MO`s have populations of >=0.950 on one atom
  (B) Two center bond orbitals have populations of >=0.850 on two atoms
  (C) Other MO`s are considered to be `delocalized`

FOUND  -   1 strongly local MO`s
       -   0 two center bond MO`s
       -   0 significantly delocalized MO`s

Rather strongly localized orbitals:
MO   0:   0O  -   0.999478
Localized MO's were stored in: frag4.loc

Warning: reference  - re-canonicalizations have been set to INT 1 VIRT 1
Warning: internal orbitals are localized - no re-canonicalization of internal orbitals
Warning: UsePNO is turned on - no re-canonicalization of internal and virtual orbitals

--------------------------
CLOSED-SHELL FOCK OPERATOR
--------------------------

Restoring SHARK [2] ... ok
Entering RIJCOSX section for the Fock matrix
Trying to retrieve the full J-matrix              ... done
Updating the Fock matrix                          ... done
Making the frozen core Coulomb matrix             ... SHARKdone
Retrieving the full K-matrix                      ... done
Calculating the frozen core K-matrix              ... done
Updating the Fock matrix                          ... done
Time needed for Fock operator              ...            1.155 sec
Reference energy                           ...    -76.064324479

--------------
DLPNO SETTINGS (2015 fully linear scaling implementation)
--------------

TCutMKN:           1.000e-03
TCutPAO:           1.000e-03
TCutPNO:           1.000e-07
TCutPNOSingles:    3.000e-09
TCutEN:            9.700e-01
TCutPAOExt:        1.000e-01
TCutPairs:         1.000e-05
TCutPre:           1.000e-07
TCutOSV:           1.000e-06
TCutDOij:          1.000e-05
TCutDO:            5.000e-03
TCutC:             1.000e-04
TCutCPAO:          1.000e-03
TCutCMO:           1.000e-03
TScaleDOMP2PreScr: 2.000e+00
TScaleMKNMP2PreScr:1.000e+01
TScalePNOMP2PreScr:1.000e+00
PAO overlap thresh 1.000e-08
Using PNOs for Singles Fock computation
Use new domains
Use fully linear algorithm
TCutTNO:           1.000e-09
TCutMP2Pairs:      1.000e-06
TCutDOStrong:      1.000e-02
TCutDOWeak:        2.000e-02
TCutMKNStrong:     1.000e-02
TCutMKNWeak:       1.000e-01
NTCutTNO:          1

--------------------------
Mulliken population of the LMOs            ... ok
Performing proximity check                 ... 
 found 1 problematic atoms
   => In all likelyhood your results will be entirely fine!
   => In case you don't want to trust it, decrease TCutMKN to below 0.00093250.
   => but note that this is probably not necessary but will increase execution time
Calculating differential overlap integrals ... ok

--------------------------
ELECTRON PAIR PRESCREENING
--------------------------

Dipole-based pair screening          .... used

   TCutDOij = 1.000000e-05
   TCutPre  = 1.000000e-07
   .... Finished loop over pairs
Total time spent in the prescreening                  ...     0.000 sec
Time for pair-prescreening                            ...     0.000 sec
Time for pairlist organization                        ...     0.000 sec
Number of pairs skipped by pre-screening              ... 0
sum of pair energies estimated for screened out pairs ...       0.000000000000 Eh
Thresholds for map construction and integral transformation for crude MP2:
   TCutMKN                    ...     1.0e-02
   TCutDO                     ...     1.0e-02
   TCutPairs                  ...     1.0e-05
   TCutPNO_CrudeMP2           ...     1.0e-07
   TCutPNOSingles_CrudeMP2    ...     3.0e-09
--------------------------------
LOCAL RI TRANSFORMATION (IAVPAO)
--------------------------------

Orbital window:       1 to 4
Number of PAOs:     172
Basis functions:    172 (48 shells)
Aux. functions:     832 (158 shells)
Use SHARK:           on

Processing maps (0.0 sec)
Average map sizes:
   Aux shells -> MOs               4.0
   Aux shells -> PAOs            172.0
   MOs        -> AO shells        48.0
   PAOs       -> AO shells        48.0

Calculating integrals (0.3 sec, 4.377 MB)
Sorting integrals (0.0 sec, 4.367 MB)
Total time for the integral transformation: 0.3 sec
--------------------------------
INITIAL GUESS AND PNO GENERATION
--------------------------------

PNO truncation parameters                   .... 
    PAOOverlapThresh   =        1.000e-08

    TCutPairs          =        1.000e-05
    TCutPNO            =        1.000e-07
    TCutPNOSingles     =        3.000e-09
    TCutMP2Pairs       =        1.000e-06
    TCutMKN            =        1.000e-02
    TCutDO             =        1.000e-02

Pair selection                          .... not used
Type of local MP2 treatment                 .... semi-local MP2
Strategy for PNO selection                  .... occupation number selection
Pair density normalization                  .... MP2 norm
Spin component scaling                      .... not used

   .... Finished loop over pairs
Making pair pair interaction lists          ... 
Pair pair interaction statistics
Nr. of pairs:                        10
Nr. of Singles:                       4
Average (per pair domain)               (Total):
Atoms:                              3.0 (3)
PNOs:                              26.2
PAOs:                  172.0 (172)
Aux functions:                    557.2 (832)
AuxAtoms:                           1.8 (3)
EXT1 basis functions:             172.0 (172)
Interacting Pairs:                  3.0 (10)
Interacting Pairs - Singles:        4.0 (4)
Average (per Single domain):
Atoms (Singles):                    3.0 (3)
PNOs (Singles):                   123.2
Basis functions (Singles):        172.0 (172)
Interacting Singles - Singles:      4.0 (4)
Interacting Singles - Pairs:       10.0 (10)
done

                       ===========================
                         10 OF   10 PAIRS ARE KEPT CCSD PAIRS
                          0 OF   10 PAIRS ARE KEPT MP2 PAIRS FOR (T)
                          0 OF   10 PAIRS ARE SKIPPED
                       ===========================

Total time spent in the initial guess                 ...     0.099 sec
Pair domain construction                              ...     0.000 sec
Time for calculating MP2 Guess in PAOs                ...     0.041 sec
     Time for Local metric generation                 ...     0.000 sec
     Time for Local Kij generation                    ...     0.021 sec
     Time for Local MP2 calculation                   ...     0.001 sec
     Time for LMP2 iterations                         ...     0.000 sec
          prep and other time                         ...     0.000 sec
          Time for sigma                              ...     0.000 sec (    0.000 sec in k-loop)
          Time for DIIS                               ...     0.000 sec
          Time for Update                             ...     0.000 sec
      Time for LMP2 I/O                               ...     0.000 sec
      Time for Initial PNO                            ...     0.000 sec
Time for generating PNOs                              ...     0.005 sec
Time for pairlist organization                        ...     0.000 sec
Time for pair-pair interaction organization           ...     0.000 sec
Size of the domain VM**-1/2 file                      ...         0 MB
SL-MP2 correlation energy (all non-screened pairs)    ...      -0.278785708375 Eh

Initial PNO correlation energy                        ...      -0.278638276781 Eh
sum of pair energies prescreened and skipped MP2 pairs...       0.000000000000 Eh
sum of pair energies of crude MP2 skipped pairs only  ...       0.000000000000 Eh
sum of MP2 pair energies for pairs that were not kept ...       0.000000000000 Eh
sum of PNO error estimates for the kept pairs         ...      -0.000147431594 Eh
                                                          --------------------
sum of all corrections                                         -0.000147431594
Initial total correlation energy                               -0.278785708375
Thresholds for map construction and integral transformation for fine MP2 and CCSD(T) calculation:
   TCutMKN   ...     1.0e-03
   TCutDO    ...     5.0e-03
   TCutPairs ...     1.0e-05
   TCutCMO   ...     1.0e-03
   TCutCPAO  ...     1.0e-03

Thresholds for map construction and integral transformation for strong Triples:
   TCutMKN   ...     1.0e-02
   TCutDO    ...     1.0e-02
   TCutCMO   ...     1.0e-03
   TCutCPAO  ...     1.0e-03

Thresholds for map construction and integral transformation for weak Triples:
   TCutMKN   ...     1.0e-01
   TCutDO    ...     2.0e-02
   TCutCMO   ...     1.0e-03
   TCutCPAO  ...     1.0e-03

--------------------------------
LOCAL RI TRANSFORMATION (IAVPAO)
--------------------------------

Orbital window:       1 to 4
Number of PAOs:     172
Basis functions:    172 (48 shells)
Aux. functions:     832 (158 shells)
Use SHARK:           on

Processing maps (0.0 sec)
Average map sizes:
   Aux shells -> MOs               4.0
   Aux shells -> PAOs            172.0
   MOs        -> AO shells        48.0
   PAOs       -> AO shells        48.0

Calculating integrals (0.3 sec, 4.377 MB)
Sorting integrals (0.0 sec, 4.367 MB)
Total time for the integral transformation: 0.3 sec
--------------------------------
INITIAL GUESS AND PNO GENERATION
--------------------------------

PNO truncation parameters                   .... 
    ScaleTCutPNO       =        1.000e-02
    PAOOverlapThresh   =        1.000e-08

    TCutPairs          =        1.000e-05
    TCutPNO            =        1.000e-07
    TCutPNOSingles     =        3.000e-09
    TCutMP2Pairs       =        1.000e-06
    TCutMKN            =        1.000e-03
    TCutDO             =        5.000e-03

Pair selection                          .... not used
Type of local MP2 treatment                 .... full local PMP2
Strategy for PNO selection                  .... occupation number selection
Pair density normalization                  .... MP2 norm
Spin component scaling                      .... not used

PASS-1: Formation of initial guess LMP2 amplitudes
Initial amplitudes guess done. Entering LMP2 iteration loop:
   Max. no of iterations          ...  50
   Energy convergence tolerance   ...    1.0e-07
   Residual convergence tolerance ...    5.0e-07
   Fock matrix cutoff             ...    1.0e-05 Eh
   DIIS convergence acceleration parameters:
        Max # vectors in DIIS     ... 7
        Start iteration of DIIS   ... 0
        Levelshift                ... 2.000e-01
        Damping factor 1          ... 5.000e-01
        Damping factor 2          ... 1.000e+00
   L-MP2 PNO cut-off              ...   1.0e-09
   L-MP2 PNO cut-off (core)       ...   1.0e-11
60 of 60 terms in k-loop evaluated.

                           *** Turning on DIIS ***
LMP2-Iter=   0:  ELMP2= -0.283791492861  DE=   5.0e-03 RMAX=   4.7e-03
LMP2-Iter=   1:  ELMP2= -0.286513632136  DE=   2.7e-03 RMAX=   2.5e-03
LMP2-Iter=   2:  ELMP2= -0.286905163928  DE=   3.9e-04 RMAX=   4.3e-04
LMP2-Iter=   3:  ELMP2= -0.286958927644  DE=   5.4e-05 RMAX=   1.6e-04
LMP2-Iter=   4:  ELMP2= -0.286963244341  DE=   4.3e-06 RMAX=   1.9e-05
LMP2-Iter=   5:  ELMP2= -0.286963220356  DE=   2.4e-08 RMAX=   5.7e-06
LMP2-Iter=   6:  ELMP2= -0.286963199786  DE=   2.1e-08 RMAX=   5.2e-07
LMP2-Iter=   7:  ELMP2= -0.286963195829  DE=   4.0e-09 RMAX=   1.6e-07
LMP2-Iter=   8:  ELMP2= -0.286963197601  DE=   1.8e-09 RMAX=   2.0e-08 => CONVERGED
PASS-2: Formation of Pair natural orbitals
   .... Finished loop over pairs
Process 1:   (    3,     1):  99.989153190808 %
Process 1:   (    3,     2):  99.989162348514 %
Process 1:   (    3,     3):  99.988831409469 %
Process 1:   (    3):  99.999793375898 % (IJ)
Process 2:   (    4,     1):  99.989288607909 %
Process 2:   (    4,     2):  99.989287067847 %
Process 2:   (    4,     3):  99.986621738520 %
Process 3:   (    4,     4):  99.989086720781 %
Process 3:   (    4):  99.999783785304 % (IJ)

  - Occupation number analysis for DOUBLES-pairs:

   Orbital Indices     % trace(D) 
  -----------------------------------
Process 0:   (    1,     1):  99.986446444273 %
Process 0:   (    2,     1):  99.989566391843 %
Process 0:   (    2,     2):  99.986411140798 %

  - Occupation number analysis for SINGLES-pairs:

   Orbital Index       % trace(D) 
  -----------------------------------
Process 0:   (    1):  99.999695068300 % (IJ)
Process 0:   (    2):  99.999713149859 % (IJ)

 PNO Occupation Number Statistics: 
  | Av. % of trace(Dij) retained        ...  99.988385506076
  | sigma^2 in % of trace(Dij) retained ...   1.57e-06
  | Av. % of trace(Di) retained         ...  99.999746344840
  | sigma^2 in % of trace(Di) retained  ...   1.84e-09
 Distributions of % trace(Dij) recovered:
  |       >= 99.9  ...    10 (100.0 % of all pairs)
 Distributions of % trace(Di) recovered :
  |       >= 99.9  ...     4 (100.0 % of all I-pairs )

Making pair pair interaction lists          ... 
Pair pair interaction statistics
Nr. of pairs:                        10
Nr. of Singles:                       4
Average (per pair domain)               (Total):
Atoms:                              3.0 (3)
PNOs:                              27.1
PAOs:                  172.0 (172)
Aux functions:                    809.1 (832)
AuxAtoms:                           2.9 (3)
EXT1 basis functions:             172.0 (172)
Interacting Pairs:                  3.0 (10)
Interacting Pairs - Singles:        4.0 (4)
Average (per Single domain):
Atoms (Singles):                    3.0 (3)
PNOs (Singles):                   127.5
Basis functions (Singles):        172.0 (172)
Interacting Singles - Singles:      4.0 (4)
Interacting Singles - Pairs:       10.0 (10)
done

                       ===========================
                         10 OF   10 PAIRS ARE KEPT
                       ===========================

Total time spent in the initial guess                 ...     0.623 sec
Pair domain construction                              ...     0.000 sec
Time for calculating MP2 Guess in PAOs                ...     0.154 sec
     Time for Local metric generation                 ...     0.000 sec
     Time for Local Kij generation                    ...     0.147 sec
     Time for Local MP2 calculation                   ...     0.001 sec
     Time for LMP2 iterations                         ...     0.315 sec
          prep and other time                         ...     0.001 sec
          Time for sigma                              ...     0.139 sec (    0.121 sec in k-loop)
          Time for DIIS                               ...     0.117 sec
          Time for Update                             ...     0.013 sec
      Time for LMP2 I/O                               ...     9.987 sec
      Time for Initial PNO                            ...     0.030 sec
Time for generating PNOs                              ...     0.003 sec
Time for pairlist organization                        ...     0.000 sec
Time for pair-pair interaction organization           ...     0.000 sec
Size of the domain VM**-1/2 file                      ...        68 MB
Size of the P2V_red file                              ...         1 MB
L-MP2 correlation energy (all non-screened pairs)     ...      -0.286963197601 Eh
L-MP2 PNO error correction                            ...      -0.000000431229 Eh
                                                          --------------------
Initial total L-MP2 energy (non-screened pairs)       ...      -0.286963628829 Eh

Initial PNO correlation energy                        ...      -0.286821145820 Eh
sum of pair energies estimated for screened out pairs ...       0.000000000000 Eh
sum of MP2 pair energies for pairs that were not kept ...       0.000000000000 Eh
sum of PNO error estimates for the kept pairs         ...      -0.000142483009 Eh
                                                          --------------------
sum of all corrections                                         -0.000142483009
Initial total correlation energy                               -0.286963628829
Thresholds for map construction and integral transformation for fine MP2 and CCSD(T) calculation:
   TCutMKN   ...     1.0e-03
   TCutDO    ...     5.0e-03
   TCutPairs ...     1.0e-05
   TCutCMO   ...     1.0e-03
   TCutCPAO  ...     1.0e-03

Time for aux screen maps:            0.001
Time for maps after fine MP2:            0.002
-----------------------------
LOCAL RI TRANSFORMATION (IJV)
-----------------------------

Orbital window:       1 to 4
Basis functions:    172 (48 shells)
Aux. functions:     832 (158 shells)
Use SHARK:           on

Processing maps (0.0 sec)
Average map sizes:
   Aux shells -> MOs(i)            4.0
   Aux shells -> MOs(j)            4.0
   MOs        -> AO shells        48.0

Calculating integrals (0.3 sec, 0.111 MB)
Sorting integrals (0.0 sec, 0.102 MB)
Total time for the integral transformation: 0.3 sec
--------------------------------
LOCAL RI TRANSFORMATION (VABPAO)
--------------------------------

Number of PAOs:     172
Basis functions:    172 (48 shells)
Aux. functions:     832 (158 shells)
Use SHARK:           on

Processing maps (0.0 sec)
Average map sizes:
   Aux shells -> PAOs            172.0
   PAOs       -> AO shells        48.0

Calculating integrals (0.4 sec, 187.799 MB)
Finished
Precomputing pair/pair interactions        ... 

-------------------------------------
Pair Pair Term precalculation with     
RI-(ij|mn) and (im|jn) transformation  
ON THE FLY                             
-------------------------------------

Max core memory to be used                    ...   4000 MB
Number of batches needed                      ...      1 
Average Memory used per batch                 ...      0 MB
Pair Pair terms per batch                     ...      0 
Total number of pairs                         ...     10 
Memory needed for all IJPairs                 ...      0 MB
   IBatch   1 (of   1)              ... done (    5.396 sec)
Total EXT                           ...           5.396 sec

Detailed timings: 
Reading/generating VMAT                    ...          0.012 sec
Reading 3-index integrals                  ...          0.118 sec
Sorting of data                            ...          1.401 sec
Get Pair1 ...          0.000 sec
Get Pair2 ...          0.001 sec
Get Pair3 ...          0.000 sec
Get Pair4 ...          0.000 sec
Get Pair5 ...          0.000 sec
Get Pair6 ...          0.001 sec
Orthogonalization of the 3-index integrals ...          0.131 sec
Multipl. of 3-index integrals              ...          3.235 sec
GetNewMat              ...          0.074 sec
Generating IJMN (orthog. + mult.)          ...          4.413 sec
Generating IJMN (orthog. + mult.) 1         ...          3.796 sec
Generating IJMN (orthog. + mult.) 2         ...          0.000 sec
Generating IJMN (orthog. + mult.) 3         ...          0.312 sec
Generating IJMN (orthog. + mult.) 4         ...          0.305 sec
Generating IMJN (orthog. + mult.)          ...          0.195 sec

done (    5.526 sec)
---------------------
RI-PNO TRANSFORMATION
---------------------

Total Number of PNOs                   ...   896
Average number of PNOs per pair        ...    89
Maximal number of PNOs per pair        ...    96
   #pairs with  1 -  5 PNOs   :    0
   #pairs with  6 - 10 PNOs   :    0
   #pairs with 11 - 15 PNOs   :    0
   #pairs with 16 - 20 PNOs   :    0
   #pairs with 21 - 25 PNOs   :    0
   #pairs with 26 - 30 PNOs   :    0
   #pairs with 31 - 35 PNOs   :    0
   #pairs with 36 - 40 PNOs   :    0
   #pairs with 41 - 45 PNOs   :    0
   #pairs with 46 - 50 PNOs   :    0
   #pairs with 76 - 80 PNOs   :    2
   #pairs with 81 - 85 PNOs   :    2
   #pairs with 91 - 95 PNOs   :    5
   #pairs with > 96 PNOs      :    1

Generation of (ij|ab)[P] integrals            ... on
Generation of (ia|bc)[P],(ja|bc)[P] integrals ... on
Storage of 3 and 4 external integrals         ... on
Generation of ALL (ka|bc)[P] integrals        ... on
Keep RI integrals in memory                   ... off
PNO Integral generation
Max core memory to be used                    ...   4000 MB
Number of batches needed                      ...      1 
Memory available for IJPairs                  ...   3929 MB
Memory needed per IJPair                      ...     70 MB
Total number of pairs                         ...     10 
Memory needed for all IJPairs                 ...    697 MB

Ibatch:  1 (of  1)
Starting 2-4 index PNO integral generation ... done

Timings:
Total PNO integral transformation time     ...          7.664 sec
Reading/generating VMAT                    ...          0.018 sec
Reading 3-index integrals                  ...          0.096 sec
Sorting of data (for reading)              ...          0.074 sec
      Sorting of data (for reading) 1      ...          0.000 sec
      Sorting of data (for reading) 2      ...          0.070 sec
      Sorting of data (for reading) 3      ...          0.000 sec
      Sorting of data (for reading) 4      ...          0.001 sec
      Sorting of data (for reading) 5      ...          0.004 sec
      Sorting of data (for reading) 6      ...          0.000 sec
Sorting of data (for reading) - only MN    ...          0.070 sec
Sorting of data (for intermediates)        ...          0.026 sec
Sorting of data (for writing)              ...          0.004 sec
Transformation of 3-index int. to PNO basis...          0.735 sec
Orthogonalization of the 3-index integrals ...          0.718 sec
                                        ab ...          0.679 sec
                                        ia ...          0.018 sec
                                        ja ...          0.015 sec
                                        ka ...          0.000 sec
                                        ij ...          0.002 sec
                                      kikj ...          0.005 sec
Multipl. of orthog. 3-index integrals      ...          2.988 sec
Generating of PNO1 integrals               ...          0.005 sec
Generating of K and J integrals            ...          0.020 sec
Generating of PNO3ij integrals             ...          0.280 sec
Generating of PNO3All integrals            ...          0.574 sec
Generating of PNO4 integrals               ...          5.037 sec
Generating of IKJL integrals               ...          0.001 sec
Storing data in files                      ...          2.873 sec
tmPrep ...          0.001 sec
tmPrep2 ...          0.076 sec
tmGenerate ...          6.670 sec
tmRead ...          0.918 sec
tmVIJSum ...          0.001 sec
tmVIMSum ...          0.023 sec
tmVABSum ...          0.895 sec
tmGetPairSum ...          0.000 sec
tmGetAuxAddrSum ...          0.000 sec
tmGetNewMatSum ...          0.003 sec
Size of the 3-external file                ...        56 MB
Size of the 4-external file                ...       647 MB
Size of the IKJL file                      ...         0 MB
Size of the all 3-external file            ...       112 MB
Size of the 1-external file                ...         0 MB

Making pair/pair overlap matrices          ... done (    0.013 sec)
Size of the pair overlap file              ... 8 MB
Redoing the guess amplitudes               ... done (    0.001 sec)

-------------------------
FINAL STARTUP INFORMATION
-------------------------

E(0)                                       ...    -76.064324479
E(L-MP2)                                   ...     -0.286963629
E(L-MP2) including corrections             ...     -0.286963629
Initial E(tot)                             ...    -76.351288108
<T|T>                                      ...      0.059431426
Number of pairs included                   ... 10
Total number of pairs                      ... 10

------------------------------------------------
                  RHF COUPLED CLUSTER ITERATIONS
------------------------------------------------

Number of PNO amplitudes to be optimized   ...        80688
Number of non-PNO amplitudes               ...       278890
Untruncated number of regular amplitudes   ...       278890

Iter       E(tot)           E(Corr)          Delta-E          Residual     Time
  0    -76.343086324     -0.278619363      0.008344266      0.010998390   15.86
                           *** Turning on DIIS ***
  1    -76.346285044     -0.281818082     -0.003198719      0.007185573   15.61
  2    -76.351901521     -0.287434559     -0.005616478      0.002322934   15.59
  3    -76.353127666     -0.288660704     -0.001226145      0.001100491   17.49
  4    -76.353421402     -0.288954440     -0.000293736      0.000393509   15.77
  5    -76.353483148     -0.289016186     -0.000061746      0.000156629   15.60
  6    -76.353497943     -0.289030981     -0.000014795      0.000045926   15.56
  7    -76.353500342     -0.289033380     -0.000002399      0.000015252   15.53
  8    -76.353500892     -0.289033931     -0.000000550      0.000004938   15.47
  9    -76.353500603     -0.289033641      0.000000290      0.000001777   15.27
 10    -76.353500650     -0.289033688     -0.000000047      0.000000923   15.89
               --- The Coupled-Cluster iterations have converged ---

----------------------
COUPLED CLUSTER ENERGY
----------------------

E(0)                                       ...    -76.064324479
E(CORR)(strong-pairs)                      ...     -0.289033688
E(CORR)(weak-pairs)                        ...     -0.000142483
E(CORR)(corrected)                         ...     -0.289176171
E(TOT)                                     ...    -76.353500650
Singles Norm <S|S>**1/2                    ...      0.026310097  
T1 diagnostic                              ...      0.009302024  

------------------
LARGEST AMPLITUDES
------------------
   3->  5   3->  5       0.037849
   4->  5   4->  5       0.035663
   4-> 13   4->  5       0.025737
   4->  5   4-> 13       0.025737
   3-> 13   3->  5       0.024352
   3->  5   3-> 13       0.024352
   4-> 13   4-> 13       0.023583
   2->  6   2->  6       0.020227
   3-> 13   3-> 13       0.020119
   1->  6   1->  6       0.018846
   1->  7   1->  7       0.014946
   2->  7   2->  7       0.014910
   3->  5   3-> 12       0.014196
   3-> 12   3->  5       0.014196
   4->  7   4->  7       0.013780
   2->  6   2-> 14       0.013541


-------------------------------------------
DLPNO BASED TRIPLES CORRECTION
-------------------------------------------

Singles multiplier          ...  1.000000
TCutTNO                     ... 1.000e-09
TCutMP2Pairs                ... 1.000e-06
TCutDOStrong                ... 1.000e-02
TCutMKNStrong               ... 1.000e-02
TCutDOWeak                  ... 2.000e-02
TCutMKNWeak                 ... 1.000e-01

Parameters used in iterative triples
TCutFock                    ... 1.000e-03
TCutWeak                    ... 1.000e-08
TCutWeakGuess               ... 6.000e-06
TCutIter                    ... 1.000e-03
TNOScaleS                   ... 1.000e+01
TNOScaleW                   ... 1.000e+02
ETol                        ... 1.000e-04

Fragment selection                          .... not used
Number of Triples that are to be computed   ...        16
TNO Construction, Integral generation and (T) correction calculation are done consecutively per batch.
Batch size determined on the fly.
Max core memory to be used                        ...   4000 MB
Memory available for Triples                      ...   3922 MB
Total number of Triples                           ...     16 

 . . . . . . . . .
10% done  
20% done  
30% done  
40% done  
50% done  
60% done  
70% done  
80% done  
90% done               (      9.802 sec)

-------------------
Triples Iterations:
-------------------

The T1 Strong/Weak pair is = 13/3 

Iter        E(Triple)      Delta-E            Time
  0     0.000000000000    0.009142280223      9.88
  1    -0.009461786969    0.000319506745      3.16
  2    -0.009490259793    0.000028472825      3.15

------------------
TRIPLES CORRECTION
------------------

The Conventional (T0) is    -0.009157164012
The Truncated    (T0) is    -0.009142280223
The corrected     (T) is    -0.009505143581

Triples timings:
Total time for T0               ...     9.883 sec
Total time for Iterative (T)    ...     6.327 sec
Total time of overall (T)       ...    16.257 sec

Triples List generation         ...     0.000 sec
TNO generation                  ...     0.074 sec
Pair density generation         ...     0.001 sec
Look up tables                  ...     0.000 sec
Generating 3-index integrals    ...     1.572 sec
  Make 4-ind.int. from 3-ind.int...     1.629 sec
  Projecting amplitudes (D + S) ...     0.033 sec
  Downprojecting integrals      ...     2.493 sec
  Energy contr. (sum over a,b,c)...     2.152 sec
Fitting ET(->0)                 ...     0.000 sec

Everything after 3-index        ...     8.230 sec

Timing details:
 TNO integrals                  ...     3.001 sec
   Reading 3-index integrals    ...     0.076 sec
   Sorting integrals            ...     0.834 sec
       Sorting integrals 1      ...     0.000 sec
       Sorting integrals 2      ...     0.075 sec
       Sorting integrals 3      ...     0.033 sec
       Sorting integrals 4      ...     0.000 sec
       Sorting integrals 5      ...     0.002 sec
       Sorting integrals 6      ...     0.723 sec
   Calculating local VM**-1/2   ...     0.036 sec
   Orthogonal. integrals        ...     0.052 sec
   Multipl. 3-index integrals   ...     2.003 sec
   All concerning IRIab (w/TNO) ...     0.742 sec

 Calculate W0/W1                ...     1.916 sec
 W 3-ext contribution           ...     0.926 sec
 W 3-int contribution           ...     0.213 sec
 Sorting W                      ...     0.677 sec

 V exchange contribution        ...     1.060 sec

 Timings for Triples without generation
     of 3-index integrals       ...     8.225 sec
       0 weak pairs             ...     8.225 sec
       1 weak pair              ...     0.000 sec
       2 weak pairs             ...     0.000 sec
       3 weak pairs             ...     0.000 sec
  Extra time for extrapolation  ...     0.000 sec

Number of Triples   (0, 1, 2, 3 weak pairs; overall):     16       0       0       0  (    16)
Number of Atoms     (0, 1, 2, 3 weak pairs; overall):    3.0     0.0     0.0     0.0  (     3)
Number of PAOs      (0, 1, 2, 3 weak pairs; overall):  172.0     0.0     0.0     0.0  (   172)
Number of AuxFcns   (0, 1, 2, 3 weak pairs; overall):  631.6     0.0     0.0     0.0  (   832)
Number of TNOs      (0, 1, 2, 3 weak pairs         ):  135.6     0.0     0.0     0.0
Aver. Number of NTNO, Atoms, PAOs, AuxFcns / Triples:     16   135.6     3.0   172.0   631.6

Triples Correction (T)                     ...     -0.009505144
Final correlation energy                   ...     -0.298681315
E(CCSD)                                    ...    -76.353500650
E(CCSD(T))                                 ...    -76.363005794


------------------------------
PAIR CORRELATION ENERGIES (Eh)
------------------------------


------------------------------------------------------------------------------------------------------
    i     j         EP(Guess)         EP(Final)       Ratio       EP(aa)            EP(ab)     #PNOs  
------------------------------------------------------------------------------------------------------
    3     3  :     -0.030633453      -0.033604436     0.91     -0.000000000      -0.033604436          85 
    4     4  :     -0.030359053      -0.033206793     0.91     -0.000000000      -0.033206793          85 
    2     1  :     -0.032288892      -0.031348291     1.03     -0.010907981      -0.020440311          91 
    2     2  :     -0.026548666      -0.028180382     0.94     -0.000000000      -0.028180382          79 
    1     1  :     -0.026550307      -0.028178842     0.94     -0.000000000      -0.028178842          80 
    3     1  :     -0.028926610      -0.027790149     1.04     -0.010034210      -0.017755939          95 
    3     2  :     -0.028921944      -0.027786881     1.04     -0.010033026      -0.017753855          95 
    4     1  :     -0.028735050      -0.027637324     1.04     -0.009988495      -0.017648829          95 
    4     2  :     -0.028731155      -0.027634448     1.04     -0.009987315      -0.017647133          95 
    4     3  :     -0.025268500      -0.023665706     1.07     -0.008756571      -0.014909135          96 



--------------------------------------------------------------------------------
                                    TIMINGS
--------------------------------------------------------------------------------


Total execution time                   ...      207.298 sec

Localization of occupied MO's          ...        0.305 sec (  0.1%)
Fock Matrix Formation                  ...        1.155 sec (  0.6%)
Global overlap, Fock, MKN matrices     ...        0.199 sec (  0.1%)
Differential overlap integrals         ...        0.354 sec (  0.2%)
Organizing maps                        ...        0.005 sec (  0.0%)
RI 3-index integral generations        ...        1.253 sec (  0.6%)
RI-PNO integral transformation         ...       13.212 sec (  6.4%)
Initial Guess                          ...        0.732 sec (  0.4%)
DIIS Solver                            ...        0.178 sec (  0.1%)
State Vector Update                    ...        0.004 sec (  0.0%)
Sigma-vector construction              ...      173.575 sec ( 83.7%)
  <D|H|D>(0-ext)                       ...        0.111 sec (  0.1% of sigma)
  <D|H|D>(2-ext Fock)                  ...        0.008 sec (  0.0% of sigma)
  <D|H|D>(2-ext)                       ...        0.487 sec (  0.3% of sigma)
  <D|H|D>(4-ext)                       ...       45.195 sec ( 26.0% of sigma)
  <D|H|D>(4-ext-corr)                  ...      122.147 sec ( 70.4% of sigma)
  CCSD doubles correction              ...        0.028 sec (  0.0% of sigma)
  <S|H|S>                              ...        0.167 sec (  0.1% of sigma)
  <S|H|D>(1-ext)                       ...        0.032 sec (  0.0% of sigma)
  <D|H|S>(1-ext)                       ...        0.001 sec (  0.0% of sigma)
  <S|H|D>(3-ext)                       ...        0.638 sec (  0.4% of sigma)
  Fock-dressing                        ...        4.242 sec (  2.4% of sigma)
  Singles amplitudes                   ...        0.022 sec (  0.0% of sigma)
  (ik|jl)-dressing                     ...        0.070 sec (  0.0% of sigma)
  (ij|ab),(ia|jb)-dressing             ...        0.386 sec (  0.2% of sigma)
  Pair energies                        ...        0.004 sec (  0.0% of sigma)
Total Time for computing (T)           ...       16.258 sec (  7.8% of ALL)


Maximum memory used throughout the entire MDCI-calculation: 1511.7 MB

-------------------------   --------------------
FINAL SINGLE POINT ENERGY       -76.363005793710
-------------------------   --------------------


                            ***************************************
                            *     ORCA property calculations      *
                            ***************************************


  WARNING: The energy has been calculated at the MDCI level but the densities
           used in the property calculations are still SCF densities
           MDCI response densities have not been calculated 
           use %mdci Density linearized end
           or  %mdci Density unrelaxed end
           or  %mdci Density orbopt end

                                    ---------------------
                                    Active property flags
                                    ---------------------
   (+) Dipole Moment


------------------------------------------------------------------------------
                       ORCA ELECTRIC PROPERTIES CALCULATION
------------------------------------------------------------------------------

Dipole Moment Calculation                       ... on
Quadrupole Moment Calculation                   ... off
Polarizability Calculation                      ... off
GBWName                                         ... frag4.gbw
Electron density                                ... frag4.scfp
The origin for moment calculation is the CENTER OF MASS  = ( 6.381296,  2.454762 -0.312056)

-------------
DIPOLE MOMENT
-------------
                                X             Y             Z
Electronic contribution:     -0.03309      -0.14375       0.13866
Nuclear contribution   :      0.17826       0.69146      -0.67194
                        -----------------------------------------
Total Dipole Moment    :      0.14517       0.54771      -0.53328
                        -----------------------------------------
Magnitude (a.u.)       :      0.77811
Magnitude (Debye)      :      1.97779



--------------------
Rotational spectrum 
--------------------
 
Rotational constants in cm-1:    27.175489    13.976283     9.229550 
Rotational constants in MHz : 814700.658335 418998.419390 276694.936619 

 Dipole components along the rotational axes: 
x,y,z [a.u.] :    -0.035918     0.777276     0.000057 
x,y,z [Debye]:    -0.091296     1.975678     0.000145 

 

--------------------------------
SUGGESTED CITATIONS FOR THIS RUN
--------------------------------

Below you find a list of papers that are relevant to this ORCA run
We neither can nor want to force you to cite these paper, but we appreciate if you do
You receive ORCA, which is the product of a lot of hard work by many enthusiastic individuals, for free
The *only* thing we kindly ask in return is that you cite our papers,
We deeply appreciate it, if you show your appreciation for ORCA but *not* just citing the generic ORCA reference.

Please note that relegating all ORCA citations to the supporting information does *not* help us.
SI sections are not index - citations you put there will not count into our citation statistics
But we need these citations in order to attract the funding ressources that allow us to do what we are doing

Therefore, please consider citing at least a few of the papers listed below, if you are a happy ORCA user

In addition to the list printed below, the program has created the file frag4.bibtex that contains the list in bibtex format
In this format, you can import it easily in all common literature databanks and citation aid programs


List of essential papers. We consider these as the minimum necessary citations

  1. Neese,F.
     Software update: the ORCA program system, version 5.0
     WIRES Comput. Molec. Sci., 2022 12(1)e1606
     doi.org/10.1002/wcms.1606

List of papers to cite with high priority. The work reported in these papers was absolutely
necessary for this run to complete.
Our perspective: the developers of density functionals and basis sets usually get cited in chemistry papers
Good! But without the algorithms to do something with them, the functionals or basis sets would not do anything.
Hence, in our opinion, the algorithm design and method developments papers are equally worthy of getting cited

  1. Neese,F.
     An improvement of the resolution of the identity approximation for the formation of the Coulomb matrix
     J. Comp. Chem., 2003 24(14)1740-1747
     doi.org/10.1002/jcc.10318
  2. Neese,F.; Wennmohs,F.; Hansen,A.; Becker,U.
     Efficient, approximate and parallel Hartree-Fock and hybrid DFT calculations. A 'chain-of-spheres' algorithm for the Hartree-Fock exchange
     Chem. Phys., 2009 356(1-3)98-109
     doi.org/10.1016/j.chemphys.2008.10.036
  3. Neese,F.; Hansen,A.; Liakos,D.G.
     Efficient and accurate approximations to the local coupled cluster singles doubles method using a truncated pair natural orbital basis
     J. Chem. Phys., 2009 131 064103
     doi.org/10.1063/1.3173827
  4. Neese,F.; Wennmohs,F.; Hansen,A.
     Efficient and accurate local approximations to coupled-electron pair approaches: An attempt to revive the pair natural orbital method
     J. Chem. Phys., 2009 130 114108
     doi.org/10.1063/1.3086717
  5. Riplinger,C.; Neese,F.
     An efficient and near linear scaling pair natural orbital based local coupled cluster method
     J. Chem. Phys., 2013 138(3)Art. No. 034106
     doi.org/10.1063/1.4773581
  6. Riplinger,C.; Sandhoefer,B.; Hansen,A.; Neese,F.
     Natural triple excitations in local coupled cluster calculations with pair natural orbitals
     J. Chem. Phys., 2013 139(13)Art. No. 134101
     doi.org/10.1063/1.4821834
  7. Riplinger,C.; Pinski,P.; Becker,U.; Valeev,E.F.; Neese,F.
     Sparse maps-A systematic infrastructure for reduced-scaling electronic structure methods. II. Linear scaling domain based pair natural orbital coupled cluster theory
     J. Chem. Phys., 2016 144 
     doi.org/10.1063/1.4939030
  8. Bistoni,G.; Riplinger,C.; Minenkov,Y.; Cavallo,L.; Auer,A.A.; Neese,F.
     Treating Subvalence Correlation Effects in Domain Based Pair Natural Orbital Coupled Cluster Calculations: An Out-of-the-Box Approach
     J. Theo. Comp. Chem., 2017 13 3220-3227
     doi.org/10.1021/acs.jctc.7b00352
  9. Guo,Y.; Riplinger,C.; Becker,U.; Liakos,D.G.; Minenkov,Y.; Cavallo,L.; Neese,F.
     Communication: An improved linear scaling perturbative triples correction for the domain based local pair-natural orbital based singles and doubles coupled cluster method DLPNO-CCSD(T)
     J. Chem. Phys., 2018 148 5
     doi.org/10.1063/1.5011798
 10. Helmich-Paris,B.; de Souza,B.; Neese,F.; Izsk,R.
     An improved chain of spheres for exchange algorithm
     J. Chem. Phys., 2021 155 104109
     doi.org/doi: 10.1063/5.0058766.

List of suggested additional citations. These are papers that are important in the 'surrounding' of 
of this run, or papers that preceded the highly important papers. If you like your results we are grateful for a citation.

  1. Izsak,R.; Neese,F.
     An overlap fitted chain of spheres exchange method
     J. Chem. Phys., 2011 135 144105
     doi.org/10.1063/1.3646921
  2. Izsak,R.; Hansen,A.; Neese,F.
     The resolution of identity and chain of spheres approximations for the LPNO-CCSD singles Fock term
     Molec. Phys., 2012 110 2413-2417
     doi.org/10.1080/00268976.2012.687466
  3. Neese,F.
     The ORCA program system
     WIRES Comput. Molec. Sci., 2012 2(1)73-78
     doi.org/10.1002/wcms.81
  4. Izsak,R.; Neese,F.; Klopper,W.
     Robust fitting techniques in the chain of spheres approximation to the Fock exchange: The role of the complementary space
     J. Chem. Phys., 2013 139 
     doi.org/10.1063/1.4819264
  5. Neese,F.
     Software update: the ORCA program system, version 4.0
     WIRES Comput. Molec. Sci., 2018 8(1)1-6
     doi.org/10.1002/wcms.1327
  6. Neese,F.; Wennmohs,F.; Becker,U.; Riplinger,C.
     The ORCA quantum chemistry program package
     J. Chem. Phys., 2020 152 Art. No. L224108
     doi.org/10.1063/5.0004608

Timings for individual modules:

Sum of individual times         ...      216.736 sec (=   3.612 min)
GTO integral calculation        ...        0.964 sec (=   0.016 min)   0.4 %
SCF iterations                  ...        8.073 sec (=   0.135 min)   3.7 %
MDCI module                     ...      207.699 sec (=   3.462 min)  95.8 %
                             ****ORCA TERMINATED NORMALLY****
TOTAL RUN TIME: 0 days 0 hours 3 minutes 37 seconds 238 msec