                                 *****************
                                 * O   R   C   A *
                                 *****************

                                            #,                                       
                                            ###                                      
                                            ####                                     
                                            #####                                    
                                            ######                                   
                                           ########,                                 
                                     ,,################,,,,,                         
                               ,,#################################,,                 
                          ,,##########################################,,             
                       ,#########################################, ''#####,          
                    ,#############################################,,   '####,        
                  ,##################################################,,,,####,       
                ,###########''''           ''''###############################       
              ,#####''   ,,,,##########,,,,          '''####'''          '####       
            ,##' ,,,,###########################,,,                        '##       
           ' ,,###''''                  '''############,,,                           
         ,,##''                                '''############,,,,        ,,,,,,###''
      ,#''                                            '''#######################'''  
     '                                                          ''''####''''         
             ,#######,   #######,   ,#######,      ##                                
            ,#'     '#,  ##    ##  ,#'     '#,    #''#        ######   ,####,        
            ##       ##  ##   ,#'  ##            #'  '#       #        #'  '#        
            ##       ##  #######   ##           ,######,      #####,   #    #        
            '#,     ,#'  ##    ##  '#,     ,#' ,#      #,         ##   #,  ,#        
             '#######'   ##     ##  '#######'  #'      '#     #####' # '####'        



                  #######################################################
                  #                        -***-                        #
                  #          Department of theory and spectroscopy      #
                  #    Directorship and core code : Frank Neese         #
                  #        Max Planck Institute fuer Kohlenforschung    #
                  #                Kaiser Wilhelm Platz 1               #
                  #                 D-45470 Muelheim/Ruhr               #
                  #                      Germany                        #
                  #                                                     #
                  #                  All rights reserved                #
                  #                        -***-                        #
                  #######################################################


                         Program Version 5.0  -  CURRENT   -
                                (GIT: $76ccee9ca$)
                ($2022-06-14 15:14:42 +0200 $)

                  !                     WARNING:                         !
                  !         This is a DEVELOPMENT version                !

                         (BUILD: $Mi 15. Jun 00:07:41 CEST 2022$)


 With contributions from (in alphabetic order):
   Daniel Aravena         : Magnetic Suceptibility
   Michael Atanasov       : Ab Initio Ligand Field Theory (pilot matlab implementation)
   Alexander A. Auer      : GIAO ZORA, VPT2 properties, NMR spectrum
   Ute Becker             : Parallelization
   Giovanni Bistoni       : ED, misc. LED, open-shell LED, HFLD
   Martin Brehm           : Molecular dynamics
   Dmytro Bykov           : SCF Hessian
   Vijay G. Chilkuri      : MRCI spin determinant printing, contributions to CSF-ICE
   Dipayan Datta          : RHF DLPNO-CCSD density
   Achintya Kumar Dutta   : EOM-CC, STEOM-CC
   Dmitry Ganyushin       : Spin-Orbit,Spin-Spin,Magnetic field MRCI
   Miquel Garcia          : C-PCM and meta-GGA Hessian, CC/C-PCM, Gaussian charge scheme
   Yang Guo               : DLPNO-NEVPT2, F12-NEVPT2, CIM, IAO-localization
   Andreas Hansen         : Spin unrestricted coupled pair/coupled cluster methods
   Benjamin Helmich-Paris : MC-RPA, TRAH-SCF, COSX integrals
   Lee Huntington         : MR-EOM, pCC
   Robert Izsak           : Overlap fitted RIJCOSX, COSX-SCS-MP3, EOM
   Marcus Kettner         : VPT2
   Christian Kollmar      : KDIIS, OOCD, Brueckner-CCSD(T), CCSD density, CASPT2, CASPT2-K, improved NEVPT2
   Simone Kossmann        : Meta GGA functionals, TD-DFT gradient, OOMP2, MP2 Hessian
   Martin Krupicka        : Initial AUTO-CI
   Lucas Lang             : DCDCAS
   Marvin Lechner         : AUTO-CI (C++ implementation), FIC-MRCC
   Dagmar Lenk            : GEPOL surface, SMD
   Dimitrios Liakos       : Extrapolation schemes; Compound Job, initial MDCI parallelization
   Dimitrios Manganas     : Further ROCIS development; embedding schemes
   Dimitrios Pantazis     : SARC Basis sets
   Anastasios Papadopoulos: AUTO-CI, single reference methods and gradients
   Taras Petrenko         : DFT Hessian,TD-DFT gradient, ASA, ECA, R-Raman, ABS, FL, XAS/XES, NRVS
   Peter Pinski           : DLPNO-MP2, DLPNO-MP2 Gradient
   Christoph Reimann      : Effective Core Potentials
   Marius Retegan         : Local ZFS, SOC
   Christoph Riplinger    : Optimizer, TS searches, QM/MM, DLPNO-CCSD(T), (RO)-DLPNO pert. Triples
   Tobias Risthaus        : Range-separated hybrids, TD-DFT gradient, RPA, STAB
   Michael Roemelt        : Original ROCIS implementation
   Masaaki Saitow         : Open-shell DLPNO-CCSD energy and density
   Barbara Sandhoefer     : DKH picture change effects
   Avijit Sen             : IP-ROCIS
   Kantharuban Sivalingam : CASSCF convergence, NEVPT2, FIC-MRCI
   Bernardo de Souza      : ESD, SOC TD-DFT
   Georgi Stoychev        : AutoAux, RI-MP2 NMR, DLPNO-MP2 response
   Willem Van den Heuvel  : Paramagnetic NMR
   Boris Wezisla          : Elementary symmetry handling
   Frank Wennmohs         : Technical directorship


 We gratefully acknowledge several colleagues who have allowed us to
 interface, adapt or use parts of their codes:
   Stefan Grimme, W. Hujo, H. Kruse, P. Pracht,  : VdW corrections, initial TS optimization,
                  C. Bannwarth, S. Ehlert          DFT functionals, gCP, sTDA/sTD-DF
   Ed Valeev, F. Pavosevic, A. Kumar             : LibInt (2-el integral package), F12 methods
   Garnet Chan, S. Sharma, J. Yang, R. Olivares  : DMRG
   Ulf Ekstrom                                   : XCFun DFT Library
   Mihaly Kallay                                 : mrcc  (arbitrary order and MRCC methods)
   Jiri Pittner, Ondrej Demel                    : Mk-CCSD
   Frank Weinhold                                : gennbo (NPA and NBO analysis)
   Christopher J. Cramer and Donald G. Truhlar   : smd solvation model
   Lars Goerigk                                  : TD-DFT with DH, B97 family of functionals
   V. Asgeirsson, H. Jonsson                     : NEB implementation
   FAccTs GmbH                                   : IRC, NEB, NEB-TS, DLPNO-Multilevel, CI-OPT
                                                   MM, QMMM, 2- and 3-layer-ONIOM, Crystal-QMMM,
                                                   LR-CPCM, SF, NACMEs, symmetry and pop. for TD-DFT,
                                                   nearIR, NL-DFT gradient (VV10), updates on ESD,
                                                   ML-optimized integration grids
   S Lehtola, MJT Oliveira, MAL Marques          : LibXC Library
   Liviu Ungur et al                             : ANISO software


 Your calculation uses the libint2 library for the computation of 2-el integrals
 For citations please refer to: http://libint.valeyev.net

 Your ORCA version has been built with support for libXC version: 5.2.2
 For citations please refer to: https://tddft.org/programs/libxc/

 This ORCA versions uses:
   CBLAS   interface :  Fast vector & matrix operations
   LAPACKE interface :  Fast linear algebra routines
   SCALAPACK package :  Parallel linear algebra routines
   Shared memory     :  Shared parallel matrices


================================================================================

----- Orbital basis set information -----
Your calculation utilizes the basis: aug-cc-pVQZ 
    H, B-Ne : Obtained from the ccRepo (grant-hill.group.shef.ac.uk/ccrepo) Feb. 2017
              R. A. Kendall, T. H. Dunning, Jr., R. J. Harrison, J. Chem. Phys. 96, 6796 (1992)
         He : Obtained from the ccRepo (grant-hill.group.shef.ac.uk/ccrepo) Feb. 2017
              D. E. Woon, T. H. Dunning, Jr., J. Chem. Phys. 100, 2975 (1994)
  Li-Be, Na : Obtained from the ccRepo (grant-hill.group.shef.ac.uk/ccrepo) Feb. 2017
              B. P. Prascher, D. E. Woon, K. A. Peterson, T. H. Dunning, Jr., A. K. Wilson, Theor. Chem. Acc. 128, 69 (2011)
         Mg : Obtained from the Peterson Research Group Website (tyr0.chem.wsu.edu/~kipeters) Feb. 2017
              B. P. Prascher, D. E. Woon, K. A. Peterson, T. H. Dunning, Jr., A. K. Wilson, Theor. Chem. Acc. 128, 69 (2011)
      Al-Ar : Obtained from the ccRepo (grant-hill.group.shef.ac.uk/ccrepo) Feb. 2017
              D. E. Woon, T. H. Dunning, Jr., J. Chem. Phys. 98, 1358 (1993)
      Sc-Zn : Obtained from the ccRepo (grant-hill.group.shef.ac.uk/ccrepo) Feb. 2017
              N. B. Balabanov, K. A. Peterson, J. Chem. Phys. 123, 064107 (2005)
              N. B. Balabanov, K. A. Peterson, J. Chem. Phys. 125, 074110 (2006)
      Ga-Kr : Obtained from the ccRepo (grant-hill.group.shef.ac.uk/ccrepo) Feb. 2017
              A. K. Wilson, D. E. Woon, K. A. Peterson, T. H. Dunning, Jr., J. Chem. Phys. 110, 7667 (1999)

----- AuxJ basis set information -----
----- AuxC basis set information -----
================================================================================
                                        WARNINGS
                       Please study these warnings very carefully!
================================================================================


WARNING: Post HF methods need fully converged wavefunctions
  ===> : Setting SCFConvForced true
         You can overwrite this default with %scf ConvForced false 


WARNING: MDCI localization with Augmented Hessian Foster-Boys
  ===> : Switching off randomization!

INFO   : the flag for use of the SHARK integral package has been found!

================================================================================
                                       INPUT FILE
================================================================================
NAME = frag2.inp
|  1> ! DLPNO-CCSD(T1) aug-cc-pVQZ DEFGRID3 RIJCOSX def2/J aug-cc-pV5Z/C verytightscf TightPNO 
|  2> 
|  3> %pal nprocs 4 end
|  4> %maxcore 4000
|  5> %scf maxiter 999 end
|  6> %basis auxj "autoaux" auxc "autoaux" autoauxlmax true end
|  7> %mdci TCutPNO 1e-7 printlevel 3 end
|  8> 
|  9> *xyz 0 1
| 10> O     2.482542995    -1.248988714     0.449488905
| 11> H     2.616828786    -1.798226083    -0.326968465
| 12> H     2.828107886    -0.362220961     0.204648083
| 13> *
| 14> 
| 15>                          ****END OF INPUT****
================================================================================

                       ****************************
                       * Single Point Calculation *
                       ****************************

---------------------------------
CARTESIAN COORDINATES (ANGSTROEM)
---------------------------------
  O      2.482543   -1.248989    0.449489
  H      2.616829   -1.798226   -0.326968
  H      2.828108   -0.362221    0.204648

----------------------------
CARTESIAN COORDINATES (A.U.)
----------------------------
  NO LB      ZA    FRAG     MASS         X           Y           Z
   0 O     8.0000    0    15.999    4.691326   -2.360247    0.849411
   1 H     1.0000    0     1.008    4.945090   -3.398155   -0.617881
   2 H     1.0000    0     1.008    5.344349   -0.684498    0.386729

--------------------------------
INTERNAL COORDINATES (ANGSTROEM)
--------------------------------
 O      0   0   0     0.000000000000     0.00000000     0.00000000
 H      1   0   0     0.960510493747     0.00000000     0.00000000
 H      1   2   0     0.982710114820   105.39205163     0.00000000

---------------------------
INTERNAL COORDINATES (A.U.)
---------------------------
 O      0   0   0     0.000000000000     0.00000000     0.00000000
 H      1   0   0     1.815101781939     0.00000000     0.00000000
 H      1   2   0     1.857052986045   105.39205163     0.00000000

---------------------
BASIS SET INFORMATION
---------------------
There are 2 groups of distinct atoms

 Group   1 Type O   : 22s7p4d3f2g contracted to 6s5p4d3f2g pattern {991111/31111/1111/111/11}
 Group   2 Type H   : 7s4p3d2f contracted to 5s4p3d2f pattern {31111/1111/111/11}

Atom   0O    basis set group =>   1
Atom   1H    basis set group =>   2
Atom   2H    basis set group =>   2
---------------------------------
AUXILIARY/J BASIS SET INFORMATION
---------------------------------
There are 2 groups of distinct atoms

 Group   1 Type O   : 16s14p13d7f7g5h3i3j contracted to 16s14p13d7f7g5h3i3j pattern {1111111111111111/11111111111111/1111111111111/1111111/1111111/11111/111/111}
 Group   2 Type H   : 15s7p6d5f5g4h3i contracted to 15s7p6d5f5g4h3i pattern {111111111111111/1111111/111111/11111/11111/1111/111}

Atom   0O    basis set group =>   1
Atom   1H    basis set group =>   2
Atom   2H    basis set group =>   2
---------------------------------
AUXILIARY/C BASIS SET INFORMATION
---------------------------------
There are 2 groups of distinct atoms

 Group   1 Type O   : 16s14p13d7f7g5h3i3j contracted to 16s14p13d7f7g5h3i3j pattern {1111111111111111/11111111111111/1111111111111/1111111/1111111/11111/111/111}
 Group   2 Type H   : 15s7p6d5f5g4h3i contracted to 15s7p6d5f5g4h3i pattern {111111111111111/1111111/111111/11111/11111/1111/111}

Atom   0O    basis set group =>   1
Atom   1H    basis set group =>   2
Atom   2H    basis set group =>   2


           ************************************************************
           *        Program running with 4 parallel MPI-processes     *
           *              working on a common directory               *
           ************************************************************
------------------------------------------------------------------------------
                           ORCA GTO INTEGRAL CALCULATION
                           -- RI-GTO INTEGRALS CHOSEN --
------------------------------------------------------------------------------
------------------------------------------------------------------------------
                   ___                                                        
                  /   \      - P O W E R E D   B Y -                         
                 /     \                                                     
                 |  |  |   _    _      __       _____    __    __             
                 |  |  |  | |  | |    /  \     |  _  \  |  |  /  |          
                  \  \/   | |  | |   /    \    | | | |  |  | /  /          
                 / \  \   | |__| |  /  /\  \   | |_| |  |  |/  /          
                |  |  |   |  __  | /  /__\  \  |    /   |      \           
                |  |  |   | |  | | |   __   |  |    \   |  |\   \          
                \     /   | |  | | |  |  |  |  | |\  \  |  | \   \       
                 \___/    |_|  |_| |__|  |__|  |_| \__\ |__|  \__/        
                                                                              
                      - O R C A' S   B I G   F R I E N D -                    
                                      &                                       
                       - I N T E G R A L  F E E D E R -                       
                                                                              
 v1 FN, 2020, v2 2021                                                         
------------------------------------------------------------------------------


Reading SHARK input file frag2.SHARKINP.tmp ... ok
Calculating pre-screening integrals         ... done (  0.0 sec) Dimension = 55
Calculating pre-screening integrals (ORCA)  ... done (  0.1 sec) Dimension = 48
Organizing shell pair data                  ... done (  0.0 sec)
Shell pair information
Total number of shell pairs                 ...      1540
Shell pairs after pre-screening             ...      1540
Total number of primitive shell pairs       ...      1900
Primitive shell pairs kept                  ...      1870
          la=0 lb=0:    276 shell pairs
          la=1 lb=0:    299 shell pairs
          la=1 lb=1:     91 shell pairs
          la=2 lb=0:    230 shell pairs
          la=2 lb=1:    130 shell pairs
          la=2 lb=2:     55 shell pairs
          la=3 lb=0:    161 shell pairs
          la=3 lb=1:     91 shell pairs
          la=3 lb=2:     70 shell pairs
          la=3 lb=3:     28 shell pairs
          la=4 lb=0:     46 shell pairs
          la=4 lb=1:     26 shell pairs
          la=4 lb=2:     20 shell pairs
          la=4 lb=3:     14 shell pairs
          la=4 lb=4:      3 shell pairs

Calculating one electron integrals          ... done (  0.0 sec)
Calculating RI/J V-Matrix + Cholesky decomp.... done (  0.2 sec)
Calculating RI/C V-Matrix + Cholesky decomp.... done (  0.1 sec)
Calculating Nuclear repulsion               ... done (  0.0 sec) ENN=      9.057708822515 Eh

SHARK setup successfully completed in   0.6 seconds

Maximum memory used throughout the entire GTOINT-calculation: 48.6 MB


           ************************************************************
           *        Program running with 4 parallel MPI-processes     *
           *              working on a common directory               *
           ************************************************************
-------------------------------------------------------------------------------
                                 ORCA SCF
-------------------------------------------------------------------------------

------------
SCF SETTINGS
------------
Hamiltonian:
 Ab initio Hamiltonian  Method          .... Hartree-Fock(GTOs)
 RI-approximation to the Coulomb term is turned on
   Number of AuxJ basis functions       .... 832
   RIJ-COSX (HFX calculated with COS-X)).... on


General Settings:
 Integral files         IntName         .... frag2
 Hartree-Fock type      HFTyp           .... RHF
 Total Charge           Charge          ....    0
 Multiplicity           Mult            ....    1
 Number of Electrons    NEL             ....   10
 Basis Dimension        Dim             ....  172
 Nuclear Repulsion      ENuc            ....      9.0577088225 Eh

Convergence Acceleration:
 DIIS                   CNVDIIS         .... on
   Start iteration      DIISMaxIt       ....    12
   Startup error        DIISStart       ....  0.200000
   # of expansion vecs  DIISMaxEq       ....     5
   Bias factor          DIISBfac        ....   1.050
   Max. coefficient     DIISMaxC        ....  10.000
 Trust-Rad. Augm. Hess. CNVTRAH         .... auto
   Auto Start mean grad. ratio tolernc. ....  1.125000
   Auto Start start iteration           ....    20
   Auto Start num. interpolation iter.  ....    10
   Max. Number of Micro iterations      ....    24
   Max. Number of Macro iterations      .... Maxiter - #DIIS iter
   Max. Number of back steps            ....     5
   Number of Davidson start vectors     ....     2
   Converg. threshold I  (grad. norm)   ....   2.000e-06
   Converg. threshold II (energy diff.) ....   1.000e-09
   Grad. Scal. Fac. for Micro threshold ....   0.100
   Minimum threshold for Micro iter.    ....   1.000e-02
   NR start threshold (gradient norm)   ....   1.000e-04
   Initial trust radius                 ....   0.400
   Minimum AH scaling param. (alpha)    ....   1.000
   Maximum AH scaling param. (alpha)    .... 1000.000
   Inactive MOs                         .... canonicalized
   Orbital update algorithm             .... Taylor
   White noise on init. David. guess    .... on
   Maximum white noise                  ....   0.010
   Quad. conv. algorithm                .... NR
   Preconditioner                       .... approx. diagonal
 SOSCF                  CNVSOSCF        .... on
   Start iteration      SOSCFMaxIt      ....   150
   Startup grad/error   SOSCFStart      ....  0.003300
 Level Shifting         CNVShift        .... on
   Level shift para.    LevelShift      ....    0.2500
   Turn off err/grad.   ShiftErr        ....    0.0010
 Zerner damping         CNVZerner       .... off
 Static damping         CNVDamp         .... on
   Fraction old density DampFac         ....    0.7000
   Max. Damping (<1)    DampMax         ....    0.9800
   Min. Damping (>=0)   DampMin         ....    0.0000
   Turn off err/grad.   DampErr         ....    0.1000

SCF Procedure:
 Maximum # iterations   MaxIter         ....   999
 SCF integral mode      SCFMode         .... Direct
   Integral package                     .... SHARK and LIBINT hybrid scheme
 Reset frequency        DirectResetFreq ....    20
 Integral Threshold     Thresh          ....  1.000e-12 Eh
 Primitive CutOff       TCut            ....  1.000e-14 Eh

Convergence Tolerance:
 Convergence Check Mode ConvCheckMode   .... Total+1el-Energy
 Convergence forced     ConvForced      .... 1
 Energy Change          TolE            ....  1.000e-09 Eh
 1-El. energy change                    ....  1.000e-06 Eh
 Orbital Gradient       TolG            ....  2.000e-06
 Orbital Rotation angle TolX            ....  2.000e-06
 DIIS Error             TolErr          ....  1.000e-08


Diagonalization of the overlap matrix:
Smallest eigenvalue                        ... 9.001e-05
Time for diagonalization                   ...    0.005 sec
Threshold for overlap eigenvalues          ... 1.000e-08
Number of eigenvalues below threshold      ... 0
Time for construction of square roots      ...    0.009 sec
Total time needed                          ...    0.014 sec

Time for model grid setup =    0.020 sec

------------------------------
INITIAL GUESS: MODEL POTENTIAL
------------------------------
Loading Hartree-Fock densities                     ... done
Calculating cut-offs                               ... done
Initializing the effective Hamiltonian             ... done
Setting up the integral package (SHARK)            ... done
Starting the Coulomb interaction                   ... done (   0.0 sec)
Reading the grid                                   ... done
Mapping shells                                     ... done
Starting the XC term evaluation                    ... done (   0.0 sec)
Transforming the Hamiltonian                       ... done (   0.0 sec)
Diagonalizing the Hamiltonian                      ... done (   0.0 sec)
Back transforming the eigenvectors                 ... done (   0.0 sec)
Now organizing SCF variables                       ... done
                      ------------------
                      INITIAL GUESS DONE (   0.1 sec)
                      ------------------
--------------------
COSX GRID GENERATION
--------------------

GRIDX 1
-------
General Integration Accuracy     IntAcc      ... 4.020
Radial Grid Type                 RadialGrid  ... OptM3 with GC (2021)
Angular Grid (max. ang.)         AngularGrid ... 2 (Lebedev-110)
Angular grid pruning method      GridPruning ... 4 (adaptive)
Weight generation scheme         WeightScheme... Becke
Basis function cutoff            BFCut       ... 1.0000e-12
Integration weight cutoff        WCut        ... 1.0000e-14
Angular grids for H and He will be reduced by one unit
Partially contracted basis set               ... on
Rotationally invariant grid construction     ... off

Total number of grid points                  ...     4166
Total number of batches                      ...       67
Average number of points per batch           ...       62
Average number of grid points per atom       ...     1389
UseSFitting                                  ... on

GRIDX 2
-------
General Integration Accuracy     IntAcc      ... 4.338
Radial Grid Type                 RadialGrid  ... OptM3 with GC (2021)
Angular Grid (max. ang.)         AngularGrid ... 3 (Lebedev-194)
Angular grid pruning method      GridPruning ... 4 (adaptive)
Weight generation scheme         WeightScheme... Becke
Basis function cutoff            BFCut       ... 1.0000e-12
Integration weight cutoff        WCut        ... 1.0000e-14
Angular grids for H and He will be reduced by one unit
Partially contracted basis set               ... on
Rotationally invariant grid construction     ... off

Total number of grid points                  ...     9554
Total number of batches                      ...      151
Average number of points per batch           ...       63
Average number of grid points per atom       ...     3185
UseSFitting                                  ... on

GRIDX 3
-------
General Integration Accuracy     IntAcc      ... 4.871
Radial Grid Type                 RadialGrid  ... OptM3 with GC (2021)
Angular Grid (max. ang.)         AngularGrid ... 4 (Lebedev-302)
Angular grid pruning method      GridPruning ... 4 (adaptive)
Weight generation scheme         WeightScheme... Becke
Basis function cutoff            BFCut       ... 1.0000e-12
Integration weight cutoff        WCut        ... 1.0000e-14
Angular grids for H and He will be reduced by one unit
Partially contracted basis set               ... on
Rotationally invariant grid construction     ... off

Total number of grid points                  ...    18714
Total number of batches                      ...      293
Average number of points per batch           ...       63
Average number of grid points per atom       ...     6238
UseSFitting                                  ... on

Time for X-Grid setup             =    0.173 sec

 re-compute Schwartz prescreening matrix in partially contracted basis (1) ...done (   0.056 sec)
--------------
SCF ITERATIONS
--------------
ITER       Energy         Delta-E        Max-DP      RMS-DP      [F,P]     Damp
               ***  Starting incremental Fock matrix formation  ***
  0    -75.9618881312   0.000000000000 0.03344543  0.00057706  0.4031720 0.7000
  1    -76.0028904611  -0.041002329936 0.01863472  0.00039137  0.2387074 0.7000
                               ***Turning on DIIS***
  2    -76.0240621716  -0.021171710469 0.01386492  0.00022722  0.1333056 0.7000
  3    -76.1861191437  -0.162056972046 0.03519756  0.00043400  0.0759867 0.0000
  4    -76.0437489503   0.142370193371 0.00405258  0.00006589  0.0123424 0.0000
                      *** Initiating the SOSCF procedure ***
                           *** Shutting down DIIS ***
                      *** Re-Reading the Fockian *** 
                      *** Removing any level shift *** 
ITER       Energy         Delta-E        Max-DP      RMS-DP   
  5    -76.0646712999  -0.020922349626 0.00161717  0.00003147
               *** Restarting incremental Fock matrix formation ***
  6    -76.0644181905   0.000253109383 0.00063991  0.00002184
  7    -76.0644242289  -0.000006038367 0.00053496  0.00001108
  8    -76.0644254727  -0.000001243796 0.00010208  0.00000298
  9    -76.0644256371  -0.000000164439 0.00001699  0.00000049
 10    -76.0644256515  -0.000000014388 0.00000483  0.00000013
 11    -76.0644256528  -0.000000001302 0.00000225  0.00000006
 12    -76.0644256524   0.000000000418 0.00000039  0.00000001
                 **** Energy Check signals convergence ****
              ***Rediagonalizing the Fockian in SOSCF/NRSCF***

               *****************************************************
               *                     SUCCESS                       *
               *           SCF CONVERGED AFTER  13 CYCLES          *
               *****************************************************

Old exchange energy                            =     -8.930589399 Eh
New exchange energy                            =     -8.930552214 Eh
Exchange energy change after final integration =      0.000037186 Eh
Total energy after final integration           =    -76.064388466 Eh
Final COS-X integration done in                =     0.906 sec

----------------
TOTAL SCF ENERGY
----------------

Total Energy       :          -76.06438847 Eh           -2069.81724 eV

Components:
Nuclear Repulsion  :            9.05770882 Eh             246.47279 eV
Electronic Energy  :          -85.12209729 Eh           -2316.29003 eV
One Electron Energy:         -122.81817595 Eh           -3342.05247 eV
Two Electron Energy:           37.69607866 Eh            1025.76245 eV
Max COSX asymmetry :            0.00000071 Eh               0.00002 eV

Virial components:
Potential Energy   :         -152.00214562 Eh           -4136.18866 eV
Kinetic Energy     :           75.93775716 Eh            2066.37142 eV
Virial Ratio       :            2.00166757


---------------
SCF CONVERGENCE
---------------

  Last Energy change         ...    2.1225e-10  Tolerance :   1.0000e-09
  Last MAX-Density change    ...    1.1102e-15  Tolerance :   1.0000e-08
  Last RMS-Density change    ...    6.8349e-18  Tolerance :   1.0000e-09

             **** THE GBW FILE WAS UPDATED (frag2.gbw) ****
             **** DENSITY frag2.scfp WAS UPDATED ****
             **** ENERGY FILE WAS UPDATED (frag2.en.tmp) ****
             **** THE GBW FILE WAS UPDATED (frag2.gbw) ****
             **** DENSITY frag2.scfp WAS UPDATED ****
             **** ENERGY FILE WAS UPDATED (frag2.en.tmp) ****
----------------
ORBITAL ENERGIES
----------------

  NO   OCC          E(Eh)            E(eV) 
   0   2.0000     -20.566779      -559.6505 
   1   2.0000      -1.345075       -36.6014 
   2   2.0000      -0.711657       -19.3652 
   3   2.0000      -0.580469       -15.7954 
   4   2.0000      -0.509068       -13.8524 
   5   0.0000       0.026833         0.7302 
   6   0.0000       0.042984         1.1696 
   7   0.0000       0.114240         3.1086 
   8   0.0000       0.133748         3.6395 
   9   0.0000       0.150534         4.0962 
  10   0.0000       0.158391         4.3100 
  11   0.0000       0.184740         5.0270 
  12   0.0000       0.196741         5.3536 
  13   0.0000       0.208868         5.6836 
  14   0.0000       0.238035         6.4773 
  15   0.0000       0.257570         7.0088 
  16   0.0000       0.290767         7.9122 
  17   0.0000       0.355121         9.6633 
  18   0.0000       0.387996        10.5579 
  19   0.0000       0.469953        12.7881 
  20   0.0000       0.507631        13.8134 
  21   0.0000       0.542215        14.7544 
  22   0.0000       0.546290        14.8653 
  23   0.0000       0.555993        15.1293 
  24   0.0000       0.613204        16.6861 
  25   0.0000       0.633828        17.2473 
  26   0.0000       0.647648        17.6234 
  27   0.0000       0.663495        18.0546 
  28   0.0000       0.667229        18.1562 
  29   0.0000       0.686357        18.6767 
  30   0.0000       0.706400        19.2221 
  31   0.0000       0.715942        19.4818 
  32   0.0000       0.768301        20.9065 
  33   0.0000       0.782058        21.2809 
  34   0.0000       0.801036        21.7973 
  35   0.0000       0.803431        21.8625 
  36   0.0000       0.844826        22.9889 
  37   0.0000       0.855461        23.2783 
  38   0.0000       0.969874        26.3916 
  39   0.0000       1.130420        30.7603 
  40   0.0000       1.133617        30.8473 
  41   0.0000       1.206045        32.8181 
  42   0.0000       1.329130        36.1675 
  43   0.0000       1.427074        38.8327 
  44   0.0000       1.476251        40.1708 
  45   0.0000       1.507851        41.0307 
  46   0.0000       1.509974        41.0885 
  47   0.0000       1.527915        41.5767 
  48   0.0000       1.553917        42.2842 
  49   0.0000       1.595954        43.4281 
  50   0.0000       1.617237        44.0072 
  51   0.0000       1.632404        44.4200 
  52   0.0000       1.663672        45.2708 
  53   0.0000       1.664961        45.3059 
  54   0.0000       1.691279        46.0220 
  55   0.0000       1.703069        46.3429 
  56   0.0000       1.730248        47.0824 
  57   0.0000       1.756408        47.7943 
  58   0.0000       1.771523        48.2056 
  59   0.0000       1.779104        48.4119 
  60   0.0000       1.833792        49.9000 
  61   0.0000       1.866385        50.7869 
  62   0.0000       1.887238        51.3543 
  63   0.0000       1.907771        51.9131 
  64   0.0000       1.966393        53.5083 
  65   0.0000       2.013483        54.7896 
  66   0.0000       2.033870        55.3444 
  67   0.0000       2.034959        55.3740 
  68   0.0000       2.105373        57.2901 
  69   0.0000       2.208462        60.0953 
  70   0.0000       2.219808        60.4041 
  71   0.0000       2.305177        62.7271 
  72   0.0000       2.448888        66.6376 
  73   0.0000       2.616413        71.1962 
  74   0.0000       2.621419        71.3324 
  75   0.0000       2.872037        78.1521 
  76   0.0000       2.941527        80.0430 
  77   0.0000       2.991979        81.4159 
  78   0.0000       3.030772        82.4715 
  79   0.0000       3.048572        82.9559 
  80   0.0000       3.076261        83.7093 
  81   0.0000       3.260921        88.7342 
  82   0.0000       3.274711        89.1094 
  83   0.0000       3.293361        89.6169 
  84   0.0000       3.497085        95.1605 
  85   0.0000       3.589509        97.6755 
  86   0.0000       3.640484        99.0626 
  87   0.0000       3.686269       100.3085 
  88   0.0000       3.705286       100.8260 
  89   0.0000       3.746439       101.9458 
  90   0.0000       3.924464       106.7901 
  91   0.0000       4.074824       110.8816 
  92   0.0000       4.164019       113.3087 
  93   0.0000       4.172957       113.5519 
  94   0.0000       4.177154       113.6661 
  95   0.0000       4.181347       113.7802 
  96   0.0000       4.246090       115.5420 
  97   0.0000       4.325906       117.7139 
  98   0.0000       4.432088       120.6033 
  99   0.0000       4.559329       124.0656 
 100   0.0000       4.680018       127.3498 
 101   0.0000       4.739256       128.9617 
 102   0.0000       4.780661       130.0884 
 103   0.0000       4.787866       130.2844 
 104   0.0000       4.805013       130.7510 
 105   0.0000       4.864613       132.3729 
 106   0.0000       4.991280       135.8196 
 107   0.0000       5.243456       142.6817 
 108   0.0000       5.311851       144.5428 
 109   0.0000       5.493038       149.4732 
 110   0.0000       5.496633       149.5710 
 111   0.0000       5.833902       158.7485 
 112   0.0000       5.858054       159.4058 
 113   0.0000       6.055877       164.7888 
 114   0.0000       6.197668       168.6471 
 115   0.0000       6.821175       185.6136 
 116   0.0000       6.847846       186.3394 
 117   0.0000       6.857340       186.5977 
 118   0.0000       6.916576       188.2096 
 119   0.0000       7.678105       208.9318 
 120   0.0000       7.755467       211.0370 
 121   0.0000       7.781638       211.7491 
 122   0.0000       7.785939       211.8662 
 123   0.0000       7.826108       212.9592 
 124   0.0000       7.888800       214.6652 
 125   0.0000       7.928620       215.7487 
 126   0.0000       8.005928       217.8524 
 127   0.0000       8.173089       222.4011 
 128   0.0000       8.237598       224.1564 
 129   0.0000       8.504085       231.4079 
 130   0.0000       8.618112       234.5108 
 131   0.0000       8.639607       235.0957 
 132   0.0000       8.723413       237.3761 
 133   0.0000       8.742106       237.8848 
 134   0.0000       8.834292       240.3933 
 135   0.0000       8.992714       244.7042 
 136   0.0000       9.028422       245.6758 
 137   0.0000       9.157564       249.1900 
 138   0.0000       9.595646       261.1108 
 139   0.0000       9.811612       266.9875 
 140   0.0000       9.860929       268.3295 
 141   0.0000       9.877505       268.7806 
 142   0.0000       9.972089       271.3543 
 143   0.0000      10.312466       280.6165 
 144   0.0000      10.423707       283.6435 
 145   0.0000      10.726459       291.8818 
 146   0.0000      10.996138       299.2201 
 147   0.0000      11.045112       300.5528 
 148   0.0000      11.131780       302.9111 
 149   0.0000      11.268841       306.6408 
 150   0.0000      11.310298       307.7689 
 151   0.0000      11.400360       310.2196 
 152   0.0000      11.678858       317.7979 
 153   0.0000      11.769994       320.2778 
 154   0.0000      11.836294       322.0819 
 155   0.0000      11.970432       325.7320 
 156   0.0000      12.158103       330.8388 
 157   0.0000      12.182348       331.4985 
 158   0.0000      12.540944       341.2564 
 159   0.0000      12.670191       344.7734 
 160   0.0000      12.762422       347.2832 
 161   0.0000      12.872975       350.2915 
 162   0.0000      13.188698       358.8827 
 163   0.0000      13.863338       377.2406 
 164   0.0000      13.966012       380.0345 
 165   0.0000      14.372803       391.1039 
 166   0.0000      14.733134       400.9090 
 167   0.0000      14.787075       402.3768 
 168   0.0000      15.134862       411.8405 
 169   0.0000      16.746975       455.7084 
 170   0.0000      17.186507       467.6686 
 171   0.0000      45.362287      1234.3706 

                    ********************************
                    * MULLIKEN POPULATION ANALYSIS *
                    ********************************

-----------------------
MULLIKEN ATOMIC CHARGES
-----------------------
   0 O :   -0.594860
   1 H :    0.290635
   2 H :    0.304226
Sum of atomic charges:   -0.0000000

--------------------------------
MULLIKEN REDUCED ORBITAL CHARGES
--------------------------------
  0 O s       :     3.867664  s :     3.867664
      pz      :     1.540420  p :     4.689231
      px      :     1.809813
      py      :     1.338999
      dz2     :     0.008799  d :     0.033611
      dxz     :     0.003481
      dyz     :     0.012736
      dx2y2   :     0.003299
      dxy     :     0.005296
      f0      :     0.000166  f :     0.003817
      f+1     :     0.000199
      f-1     :     0.001077
      f+2     :     0.000648
      f-2     :     0.000345
      f+3     :     0.000970
      f-3     :     0.000412
      g0      :     0.000029  g :     0.000537
      g+1     :     0.000009
      g-1     :     0.000149
      g+2     :     0.000124
      g-2     :     0.000022
      g+3     :     0.000070
      g-3     :     0.000034
      g+4     :     0.000000
      g-4     :     0.000101
  1 H s       :     0.601765  s :     0.601765
      pz      :     0.021687  p :     0.094327
      px      :     0.046299
      py      :     0.026341
      dz2     :     0.004178  d :     0.013747
      dxz     :     0.005593
      dyz     :    -0.000126
      dx2y2   :     0.000767
      dxy     :     0.003336
      f0      :     0.000036  f :    -0.000474
      f+1     :     0.000171
      f-1     :    -0.000241
      f+2     :    -0.000324
      f-2     :     0.000112
      f+3     :    -0.000035
      f-3     :    -0.000192
  2 H s       :     0.593902  s :     0.593902
      pz      :     0.025381  p :     0.089311
      px      :     0.042551
      py      :     0.021380
      dz2     :     0.000293  d :     0.013091
      dxz     :     0.000402
      dyz     :     0.003343
      dx2y2   :     0.003526
      dxy     :     0.005527
      f0      :    -0.000172  f :    -0.000530
      f+1     :    -0.000040
      f-1     :    -0.000167
      f+2     :    -0.000076
      f-2     :    -0.000050
      f+3     :    -0.000062
      f-3     :     0.000036


                     *******************************
                     * LOEWDIN POPULATION ANALYSIS *
                     *******************************

----------------------
LOEWDIN ATOMIC CHARGES
----------------------
   0 O :    1.569369
   1 H :   -0.808934
   2 H :   -0.760435

-------------------------------
LOEWDIN REDUCED ORBITAL CHARGES
-------------------------------
  0 O s       :     2.891282  s :     2.891282
      pz      :     1.165171  p :     3.449307
      px      :     1.223980
      py      :     1.060155
      dz2     :     0.015466  d :     0.070084
      dxz     :     0.001847
      dyz     :     0.029842
      dx2y2   :     0.012456
      dxy     :     0.010473
      f0      :     0.001182  f :     0.017202
      f+1     :     0.000774
      f-1     :     0.004847
      f+2     :     0.002645
      f-2     :     0.001770
      f+3     :     0.003916
      f-3     :     0.002069
      g0      :     0.000088  g :     0.002756
      g+1     :     0.000106
      g-1     :     0.000682
      g+2     :     0.000540
      g-2     :     0.000246
      g+3     :     0.000317
      g-3     :     0.000165
      g+4     :     0.000073
      g-4     :     0.000539
  1 H s       :     0.585281  s :     0.585281
      pz      :     0.240183  p :     0.584864
      px      :     0.170066
      py      :     0.174615
      dz2     :     0.138487  d :     0.433788
      dxz     :     0.092236
      dyz     :     0.095129
      dx2y2   :     0.056396
      dxy     :     0.051540
      f0      :     0.050400  f :     0.205002
      f+1     :     0.022142
      f-1     :     0.038812
      f+2     :     0.032808
      f-2     :     0.039684
      f+3     :     0.008419
      f-3     :     0.012736
  2 H s       :     0.575225  s :     0.575225
      pz      :     0.153298  p :     0.557615
      px      :     0.174260
      py      :     0.230057
      dz2     :     0.037348  d :     0.423004
      dxz     :     0.022196
      dyz     :     0.133471
      dx2y2   :     0.114321
      dxy     :     0.115667
      f0      :     0.022862  f :     0.204592
      f+1     :     0.005193
      f-1     :     0.024896
      f+2     :     0.033772
      f-2     :     0.023351
      f+3     :     0.036436
      f-3     :     0.058082


                      *****************************
                      * MAYER POPULATION ANALYSIS *
                      *****************************

  NA   - Mulliken gross atomic population
  ZA   - Total nuclear charge
  QA   - Mulliken gross atomic charge
  VA   - Mayer's total valence
  BVA  - Mayer's bonded valence
  FA   - Mayer's free valence

  ATOM       NA         ZA         QA         VA         BVA        FA
  0 O      8.5949     8.0000    -0.5949     1.9285     1.9285    -0.0000
  1 H      0.7094     1.0000     0.2906     0.9956     0.9956    -0.0000
  2 H      0.6958     1.0000     0.3042     0.9814     0.9814    -0.0000

  Mayer bond orders larger than 0.100000
B(  0-O ,  1-H ) :   0.9713 B(  0-O ,  2-H ) :   0.9571 

-------
TIMINGS
-------

Total SCF time: 0 days 0 hours 0 min 7 sec 

Total time                  ....       7.617 sec
Sum of individual times     ....      13.214 sec  (173.5%)

Fock matrix formation       ....      12.848 sec  (168.7%)
  Split-RI-J                ....       1.906 sec  ( 14.8% of F)
  Chain of spheres X        ....       5.097 sec  ( 39.7% of F)
Diagonalization             ....       0.035 sec  (  0.5%)
Density matrix formation    ....       0.003 sec  (  0.0%)
Population analysis         ....       0.009 sec  (  0.1%)
Initial guess               ....       0.061 sec  (  0.8%)
Orbital Transformation      ....       0.000 sec  (  0.0%)
Orbital Orthonormalization  ....       0.000 sec  (  0.0%)
DIIS solution               ....       0.028 sec  (  0.4%)
SOSCF solution              ....       0.036 sec  (  0.5%)

Maximum memory used throughout the entire SCF-calculation: 83.1 MB


           ************************************************************
           *        Program running with 4 parallel MPI-processes     *
           *              working on a common directory               *
           ************************************************************


--------------------------------------------------------------------------------
                             ORCA-MATRIX DRIVEN CI
--------------------------------------------------------------------------------


Wavefunction type
-----------------
Correlation treatment                      ...      CCSD     
Single excitations                         ... ON
Orbital optimization                       ... OFF
Calculation of Z vector                    ... OFF
Calculation of Brueckner orbitals          ... OFF
Perturbative triple excitations            ... ON
Calculation of F12 correction              ... OFF
Frozen core treatment                      ... chemical core (2 el)
Reference Wavefunction                     ... RHF
  Internal Orbitals:     1 ...    4 (  4 MO's/  8 electrons)
  Virtual  Orbitals:     5 ...  171 (167 MO's              )
Number of AO's                             ...    172
Number of electrons                        ...     10
Number of correlated electrons             ...      8

Algorithmic settings
--------------------
Integral transformation                    ... All integrals via the RI transformation
K(C) Formation                             ... RI-DLPNO
   PNO-Integral Storage                    ... ON DISK
   PNO occupation number cut-off           ... 1.000e-07
   Singles PNO occupation number cut-off   ... 3.000e-09
   PNO Mulliken prescreening cut-off       ... 1.000e-03
   Domain cut-off (Mulliken population)    ... 1.000e-03
   PNO Normalization                       ...    1
Maximum number of iterations               ...        50
Convergence tolerance (max. residuum)      ... 1.000e-06
Level shift for amplitude update           ... 2.000e-01
Maximum number of DIIS vectors             ...         7
DIIS turned on at iteration                ...         0
Damping before turning on DIIS             ...     0.500
Damping after turning on DIIS              ...     0.000
Pair specific amplitude update             ... OFF
Natural orbital iterations                 ... OFF
Perturbative natural orbital generation    ... OFF
Printlevel                                 ... 3

Singles Fock matrix elements calculated using PNOs.

Memory handling:
----------------
Maximum memory for working arrays          ...   4000 MB
Data storage in matrix containers          ... UNCOMPRESSED
Data type for integral storage             ... DOUBLE
In-Core Storage of quantities:
   Amplitudes+Sigma Vector      ... NO
   J+K operators                ... NO
   DIIS vectors                 ... NO
   3-external integrals         ... NO
   4-external integrals         ... NO

Localization treatment:
-----------------------
Localization option                        ...    6
Localization threshhold                    ... -1.0e+00
Using relative localization threshhold     ... 1.0e-08
Neglect threshold for strong pairs         ... 1.000e-05 Eh
Prescreening threshold for very weak pairs ... 1.000e-07 Eh

Initializing the integral package          ... done
Localizing the valence orbitals
Localizing the valence orbitals
------------------------------------------------------------------------------
                           ORCA ORBITAL LOCALIZATION
------------------------------------------------------------------------------

Input orbitals are from                  ... frag2.gbw
Output orbitals are to                   ... frag2.loc
Max. number of iterations                ... 128
Localizations seeded randomly            ... off
Convergence tolerance                    ... 2.000e-07
Using relative localization threshhold   ... 1.000e-08
Threshold for strong local MOs           ... 9.500e-01
Threshold for bond MOs                   ... 8.500e-01
Operator                                 ... 0
Orbital range for localization           ... 1 to 4
Localization criterion                   ... FOSTER-BOYS (AUGMENTED HESSIAN)
Doing the dipole integrals     ... o.k.
Initial value of the localization sum :   114.497714
ITERATION   0 : L=  116.2520145418 DL=  1.75e+00 (AVERGE_DL)=    0.5407249113 
ITERATION   1 : L=  116.4510679164 DL=  1.99e-01 (AVERGE_DL)=    0.1821415999 
ITERATION   2 : L=  116.4893835978 DL=  3.83e-02 (AVERGE_DL)=    0.0799121199 
ITERATION   3 : L=  116.4932220767 DL=  3.84e-03 (AVERGE_DL)=    0.0252932103 
ITERATION   4 : L=  116.4936869854 DL=  4.65e-04 (AVERGE_DL)=    0.0088025437 
ITERATION   5 : L=  116.4937410445 DL=  5.41e-05 (AVERGE_DL)=    0.0030016428 
ITERATION   6 : L=  116.4937468926 DL=  5.85e-06 (AVERGE_DL)=    0.0009872590 
ITERATION   7 : L=  116.4937474907 DL=  5.98e-07 (AVERGE_DL)=    0.0003157101 
LOCALIZATION SUM CONVERGED

------------------------------------------------------
AUGMENTED HESSIAN OPTIMIZATION OF FOSTER-BOYS ORBITALS
------------------------------------------------------

Spin operator:           0
Orbital window:          1 to 4
Number of iterations:    128
Gradient tolerance:      2.000e-07
Number of pairs:         6
Davidson threshold:      2000
Diagonalization method:  LAPACK
Iter:    0   L: 116.4937474907   Grad. norm: 4.656654e-04
   *** Likely close to a maximum now. ***
       Augmented Hessian eigenvalues:  1.30e-07 -1.28e+00 -3.21e+00 -4.70e+00 ... 
Iter:    1   L: 116.4937475557   Grad. norm: 5.970312e-08
LOCALIZATION HAS CONVERGED.

Eigenvalues of the Hessian:
  0 -1.277e+00
  1 -3.209e+00
  2 -4.698e+00
  3 -5.335e+00
  4 -7.200e+00
  5 -9.687e+00


--------------------------------------------------------------------------------
                    LOCALIZED MOLECULAR ORBITAL COMPOSITIONS
--------------------------------------------------------------------------------

The Mulliken populations for each LMO on each atom are computed
The LMO`s will be ordered according to atom index and type
  (A) Strongly localized MO`s have populations of >=0.950 on one atom
  (B) Two center bond orbitals have populations of >=0.850 on two atoms
  (C) Other MO`s are considered to be `delocalized`

FOUND  -   2 strongly local MO`s
       -   2 two center bond MO`s
       -   0 significantly delocalized MO`s

Rather strongly localized orbitals:
MO   2:   0O  -   1.002258
MO   1:   0O  -   1.001193
Bond-like localized orbitals:
MO   4:   2H  -   0.346949  and   0O  -   0.650886
MO   3:   1H  -   0.353963  and   0O  -   0.643615
Localized MO's were stored in: frag2.loc

Localizing the core orbitals
------------------------------------------------------------------------------
                           ORCA ORBITAL LOCALIZATION
------------------------------------------------------------------------------

Input orbitals are from                  ... frag2.loc
Output orbitals are to                   ... frag2.loc
Max. number of iterations                ... 128
Localizations seeded randomly            ... off
Convergence tolerance                    ... 2.000e-07
Using relative localization threshhold   ... 1.000e-08
Threshold for strong local MOs           ... 9.500e-01
Threshold for bond MOs                   ... 8.500e-01
Operator                                 ... 0
Orbital range for localization           ... 0 to 0
Localization criterion                   ... FOSTER-BOYS (AUGMENTED HESSIAN)
Doing the dipole integrals     ... o.k.

ORCA_LOC: ONLY ONE ORBITAL - SKIPPING LOCALIZATION


--------------------------------------------------------------------------------
                    LOCALIZED MOLECULAR ORBITAL COMPOSITIONS
--------------------------------------------------------------------------------

The Mulliken populations for each LMO on each atom are computed
The LMO`s will be ordered according to atom index and type
  (A) Strongly localized MO`s have populations of >=0.950 on one atom
  (B) Two center bond orbitals have populations of >=0.850 on two atoms
  (C) Other MO`s are considered to be `delocalized`

FOUND  -   1 strongly local MO`s
       -   0 two center bond MO`s
       -   0 significantly delocalized MO`s

Rather strongly localized orbitals:
MO   0:   0O  -   0.999479
Localized MO's were stored in: frag2.loc

Warning: reference  - re-canonicalizations have been set to INT 1 VIRT 1
Warning: internal orbitals are localized - no re-canonicalization of internal orbitals
Warning: UsePNO is turned on - no re-canonicalization of internal and virtual orbitals

--------------------------
CLOSED-SHELL FOCK OPERATOR
--------------------------

Restoring SHARK [2] ... ok
Entering RIJCOSX section for the Fock matrix
Trying to retrieve the full J-matrix              ... done
Updating the Fock matrix                          ... done
Making the frozen core Coulomb matrix             ... SHARKdone
Retrieving the full K-matrix                      ... done
Calculating the frozen core K-matrix              ... done
Updating the Fock matrix                          ... done
Time needed for Fock operator              ...            1.109 sec
Reference energy                           ...    -76.064388426

--------------
DLPNO SETTINGS (2015 fully linear scaling implementation)
--------------

TCutMKN:           1.000e-03
TCutPAO:           1.000e-03
TCutPNO:           1.000e-07
TCutPNOSingles:    3.000e-09
TCutEN:            9.700e-01
TCutPAOExt:        1.000e-01
TCutPairs:         1.000e-05
TCutPre:           1.000e-07
TCutOSV:           1.000e-06
TCutDOij:          1.000e-05
TCutDO:            5.000e-03
TCutC:             1.000e-04
TCutCPAO:          1.000e-03
TCutCMO:           1.000e-03
TScaleDOMP2PreScr: 2.000e+00
TScaleMKNMP2PreScr:1.000e+01
TScalePNOMP2PreScr:1.000e+00
PAO overlap thresh 1.000e-08
Using PNOs for Singles Fock computation
Use new domains
Use fully linear algorithm
TCutTNO:           1.000e-09
TCutMP2Pairs:      1.000e-06
TCutDOStrong:      1.000e-02
TCutDOWeak:        2.000e-02
TCutMKNStrong:     1.000e-02
TCutMKNWeak:       1.000e-01
NTCutTNO:          1

--------------------------
Mulliken population of the LMOs            ... ok
Performing proximity check                 ... 
 found 1 problematic atoms
   => In all likelyhood your results will be entirely fine!
   => In case you don't want to trust it, decrease TCutMKN to below 0.00069600.
   => but note that this is probably not necessary but will increase execution time
Calculating differential overlap integrals ... ok

--------------------------
ELECTRON PAIR PRESCREENING
--------------------------

Dipole-based pair screening          .... used

   TCutDOij = 1.000000e-05
   TCutPre  = 1.000000e-07
   .... Finished loop over pairs
Total time spent in the prescreening                  ...     0.000 sec
Time for pair-prescreening                            ...     0.000 sec
Time for pairlist organization                        ...     0.000 sec
Number of pairs skipped by pre-screening              ... 0
sum of pair energies estimated for screened out pairs ...       0.000000000000 Eh
Thresholds for map construction and integral transformation for crude MP2:
   TCutMKN                    ...     1.0e-02
   TCutDO                     ...     1.0e-02
   TCutPairs                  ...     1.0e-05
   TCutPNO_CrudeMP2           ...     1.0e-07
   TCutPNOSingles_CrudeMP2    ...     3.0e-09
--------------------------------
LOCAL RI TRANSFORMATION (IAVPAO)
--------------------------------

Orbital window:       1 to 4
Number of PAOs:     172
Basis functions:    172 (48 shells)
Aux. functions:     832 (158 shells)
Use SHARK:           on

Processing maps (0.0 sec)
Average map sizes:
   Aux shells -> MOs               4.0
   Aux shells -> PAOs            172.0
   MOs        -> AO shells        48.0
   PAOs       -> AO shells        48.0

Calculating integrals (0.3 sec, 4.377 MB)
Sorting integrals (0.0 sec, 4.367 MB)
Total time for the integral transformation: 0.3 sec
--------------------------------
INITIAL GUESS AND PNO GENERATION
--------------------------------

PNO truncation parameters                   .... 
    PAOOverlapThresh   =        1.000e-08

    TCutPairs          =        1.000e-05
    TCutPNO            =        1.000e-07
    TCutPNOSingles     =        3.000e-09
    TCutMP2Pairs       =        1.000e-06
    TCutMKN            =        1.000e-02
    TCutDO             =        1.000e-02

Pair selection                          .... not used
Type of local MP2 treatment                 .... semi-local MP2
Strategy for PNO selection                  .... occupation number selection
Pair density normalization                  .... MP2 norm
Spin component scaling                      .... not used

   .... Finished loop over pairs
Making pair pair interaction lists          ... 
Pair pair interaction statistics
Nr. of pairs:                        10
Nr. of Singles:                       4
Average (per pair domain)               (Total):
Atoms:                              3.0 (3)
PNOs:                              26.2
PAOs:                  172.0 (172)
Aux functions:                    557.2 (832)
AuxAtoms:                           1.8 (3)
EXT1 basis functions:             172.0 (172)
Interacting Pairs:                  3.0 (10)
Interacting Pairs - Singles:        4.0 (4)
Average (per Single domain):
Atoms (Singles):                    3.0 (3)
PNOs (Singles):                   123.2
Basis functions (Singles):        172.0 (172)
Interacting Singles - Singles:      4.0 (4)
Interacting Singles - Pairs:       10.0 (10)
done

                       ===========================
                         10 OF   10 PAIRS ARE KEPT CCSD PAIRS
                          0 OF   10 PAIRS ARE KEPT MP2 PAIRS FOR (T)
                          0 OF   10 PAIRS ARE SKIPPED
                       ===========================

Total time spent in the initial guess                 ...     0.108 sec
Pair domain construction                              ...     0.000 sec
Time for calculating MP2 Guess in PAOs                ...     0.038 sec
     Time for Local metric generation                 ...     0.000 sec
     Time for Local Kij generation                    ...     0.019 sec
     Time for Local MP2 calculation                   ...     0.000 sec
     Time for LMP2 iterations                         ...     0.000 sec
          prep and other time                         ...     0.000 sec
          Time for sigma                              ...     0.000 sec (    0.000 sec in k-loop)
          Time for DIIS                               ...     0.000 sec
          Time for Update                             ...     0.000 sec
      Time for LMP2 I/O                               ...     0.000 sec
      Time for Initial PNO                            ...     0.000 sec
Time for generating PNOs                              ...     0.005 sec
Time for pairlist organization                        ...     0.000 sec
Time for pair-pair interaction organization           ...     0.000 sec
Size of the domain VM**-1/2 file                      ...         0 MB
SL-MP2 correlation energy (all non-screened pairs)    ...      -0.278763318939 Eh

Initial PNO correlation energy                        ...      -0.278614998452 Eh
sum of pair energies prescreened and skipped MP2 pairs...       0.000000000000 Eh
sum of pair energies of crude MP2 skipped pairs only  ...       0.000000000000 Eh
sum of MP2 pair energies for pairs that were not kept ...       0.000000000000 Eh
sum of PNO error estimates for the kept pairs         ...      -0.000148320486 Eh
                                                          --------------------
sum of all corrections                                         -0.000148320486
Initial total correlation energy                               -0.278763318939
Thresholds for map construction and integral transformation for fine MP2 and CCSD(T) calculation:
   TCutMKN   ...     1.0e-03
   TCutDO    ...     5.0e-03
   TCutPairs ...     1.0e-05
   TCutCMO   ...     1.0e-03
   TCutCPAO  ...     1.0e-03

Thresholds for map construction and integral transformation for strong Triples:
   TCutMKN   ...     1.0e-02
   TCutDO    ...     1.0e-02
   TCutCMO   ...     1.0e-03
   TCutCPAO  ...     1.0e-03

Thresholds for map construction and integral transformation for weak Triples:
   TCutMKN   ...     1.0e-01
   TCutDO    ...     2.0e-02
   TCutCMO   ...     1.0e-03
   TCutCPAO  ...     1.0e-03

--------------------------------
LOCAL RI TRANSFORMATION (IAVPAO)
--------------------------------

Orbital window:       1 to 4
Number of PAOs:     172
Basis functions:    172 (48 shells)
Aux. functions:     832 (158 shells)
Use SHARK:           on

Processing maps (0.0 sec)
Average map sizes:
   Aux shells -> MOs               4.0
   Aux shells -> PAOs            172.0
   MOs        -> AO shells        48.0
   PAOs       -> AO shells        48.0

Calculating integrals (0.3 sec, 4.377 MB)
Sorting integrals (0.0 sec, 4.367 MB)
Total time for the integral transformation: 0.3 sec
--------------------------------
INITIAL GUESS AND PNO GENERATION
--------------------------------

PNO truncation parameters                   .... 
    ScaleTCutPNO       =        1.000e-02
    PAOOverlapThresh   =        1.000e-08

    TCutPairs          =        1.000e-05
    TCutPNO            =        1.000e-07
    TCutPNOSingles     =        3.000e-09
    TCutMP2Pairs       =        1.000e-06
    TCutMKN            =        1.000e-03
    TCutDO             =        5.000e-03

Pair selection                          .... not used
Type of local MP2 treatment                 .... full local PMP2
Strategy for PNO selection                  .... occupation number selection
Pair density normalization                  .... MP2 norm
Spin component scaling                      .... not used

PASS-1: Formation of initial guess LMP2 amplitudes
Initial amplitudes guess done. Entering LMP2 iteration loop:
   Max. no of iterations          ...  50
   Energy convergence tolerance   ...    1.0e-07
   Residual convergence tolerance ...    5.0e-07
   Fock matrix cutoff             ...    1.0e-05 Eh
   DIIS convergence acceleration parameters:
        Max # vectors in DIIS     ... 7
        Start iteration of DIIS   ... 0
        Levelshift                ... 2.000e-01
        Damping factor 1          ... 5.000e-01
        Damping factor 2          ... 1.000e+00
   L-MP2 PNO cut-off              ...   1.0e-09
   L-MP2 PNO cut-off (core)       ...   1.0e-11
60 of 60 terms in k-loop evaluated.

                           *** Turning on DIIS ***
LMP2-Iter=   0:  ELMP2= -0.283768696426  DE=   5.0e-03 RMAX=   4.7e-03
LMP2-Iter=   1:  ELMP2= -0.286489572969  DE=   2.7e-03 RMAX=   2.5e-03
LMP2-Iter=   2:  ELMP2= -0.286880790978  DE=   3.9e-04 RMAX=   4.3e-04
LMP2-Iter=   3:  ELMP2= -0.286934499517  DE=   5.4e-05 RMAX=   1.6e-04
LMP2-Iter=   4:  ELMP2= -0.286938811216  DE=   4.3e-06 RMAX=   1.9e-05
LMP2-Iter=   5:  ELMP2= -0.286938787324  DE=   2.4e-08 RMAX=   5.7e-06
LMP2-Iter=   6:  ELMP2= -0.286938766804  DE=   2.1e-08 RMAX=   5.2e-07
LMP2-Iter=   7:  ELMP2= -0.286938762855  DE=   3.9e-09 RMAX=   1.6e-07
LMP2-Iter=   8:  ELMP2= -0.286938764625  DE=   1.8e-09 RMAX=   2.0e-08 => CONVERGED
PASS-2: Formation of Pair natural orbitals
   .... Finished loop over pairs

Process 2:   (    4,     1):  99.989161033415 %
Process 3:   (    4,     4):  99.988835720175 %
Process 3:   (    4):  99.999793592115 % (IJ)
  - Occupation number analysis for DOUBLES-pairs:

   Orbital Indices     % trace(D) 
  -----------------------------------
Process 0:   (    1,     1):  99.986399344095 %
Process 0:   (    2,     1):  99.989560688616 %
Process 0:   (    2,     2):  99.986444967857 %

  - Occupation number analysis for SINGLES-pairs:

   Orbital Index       % trace(D) 
  -----------------------------------
Process 0:   (    1):  99.999712602838 % (IJ)
Process 1:   (    3,     1):  99.989281068139 %
Process 1:   (    3,     2):  99.989283431914 %
Process 1:   (    3,     3):  99.989083156009 %
Process 1:   (    3):  99.999783460581 % (IJ)
Process 0:   (    2):  99.999695037502 % (IJ)
Process 2:   (    4,     2):  99.989152214109 %
Process 2:   (    4,     3):  99.986619176023 %

 PNO Occupation Number Statistics: 
  | Av. % of trace(Dij) retained        ...  99.988382080035
  | sigma^2 in % of trace(Dij) retained ...   1.57e-06
  | Av. % of trace(Di) retained         ...  99.999746173259
  | sigma^2 in % of trace(Di) retained  ...   1.85e-09
 Distributions of % trace(Dij) recovered:
  |       >= 99.9  ...    10 (100.0 % of all pairs)
 Distributions of % trace(Di) recovered :
  |       >= 99.9  ...     4 (100.0 % of all I-pairs )

Making pair pair interaction lists          ... 
Pair pair interaction statistics
Nr. of pairs:                        10
Nr. of Singles:                       4
Average (per pair domain)               (Total):
Atoms:                              3.0 (3)
PNOs:                              27.1
PAOs:                  172.0 (172)
Aux functions:                    809.1 (832)
AuxAtoms:                           2.9 (3)
EXT1 basis functions:             172.0 (172)
Interacting Pairs:                  3.0 (10)
Interacting Pairs - Singles:        4.0 (4)
Average (per Single domain):
Atoms (Singles):                    3.0 (3)
PNOs (Singles):                   127.5
Basis functions (Singles):        172.0 (172)
Interacting Singles - Singles:      4.0 (4)
Interacting Singles - Pairs:       10.0 (10)
done

                       ===========================
                         10 OF   10 PAIRS ARE KEPT
                       ===========================

Total time spent in the initial guess                 ...     0.627 sec
Pair domain construction                              ...     0.000 sec
Time for calculating MP2 Guess in PAOs                ...     0.144 sec
     Time for Local metric generation                 ...     0.000 sec
     Time for Local Kij generation                    ...     0.131 sec
     Time for Local MP2 calculation                   ...     0.001 sec
     Time for LMP2 iterations                         ...     0.329 sec
          prep and other time                         ...     0.001 sec
          Time for sigma                              ...     0.139 sec (    0.121 sec in k-loop)
          Time for DIIS                               ...     0.136 sec
          Time for Update                             ...     0.013 sec
      Time for LMP2 I/O                               ...     9.781 sec
      Time for Initial PNO                            ...     0.027 sec
Time for generating PNOs                              ...     0.004 sec
Time for pairlist organization                        ...     0.000 sec
Time for pair-pair interaction organization           ...     0.001 sec
Size of the domain VM**-1/2 file                      ...        68 MB
Size of the P2V_red file                              ...         1 MB
L-MP2 correlation energy (all non-screened pairs)     ...      -0.286938764625 Eh
L-MP2 PNO error correction                            ...      -0.000000431187 Eh
                                                          --------------------
Initial total L-MP2 energy (non-screened pairs)       ...      -0.286939195812 Eh

Initial PNO correlation energy                        ...      -0.286796693689 Eh
sum of pair energies estimated for screened out pairs ...       0.000000000000 Eh
sum of MP2 pair energies for pairs that were not kept ...       0.000000000000 Eh
sum of PNO error estimates for the kept pairs         ...      -0.000142502122 Eh
                                                          --------------------
sum of all corrections                                         -0.000142502122
Initial total correlation energy                               -0.286939195812
Thresholds for map construction and integral transformation for fine MP2 and CCSD(T) calculation:
   TCutMKN   ...     1.0e-03
   TCutDO    ...     5.0e-03
   TCutPairs ...     1.0e-05
   TCutCMO   ...     1.0e-03
   TCutCPAO  ...     1.0e-03

Time for aux screen maps:            0.001
Time for maps after fine MP2:            0.002
-----------------------------
LOCAL RI TRANSFORMATION (IJV)
-----------------------------

Orbital window:       1 to 4
Basis functions:    172 (48 shells)
Aux. functions:     832 (158 shells)
Use SHARK:           on

Processing maps (0.0 sec)
Average map sizes:
   Aux shells -> MOs(i)            4.0
   Aux shells -> MOs(j)            4.0
   MOs        -> AO shells        48.0

Calculating integrals (0.3 sec, 0.111 MB)
Sorting integrals (0.0 sec, 0.102 MB)
Total time for the integral transformation: 0.3 sec
--------------------------------
LOCAL RI TRANSFORMATION (VABPAO)
--------------------------------

Number of PAOs:     172
Basis functions:    172 (48 shells)
Aux. functions:     832 (158 shells)
Use SHARK:           on

Processing maps (0.0 sec)
Average map sizes:
   Aux shells -> PAOs            172.0
   PAOs       -> AO shells        48.0

Calculating integrals (0.5 sec, 187.799 MB)
Finished
Precomputing pair/pair interactions        ... 

-------------------------------------
Pair Pair Term precalculation with     
RI-(ij|mn) and (im|jn) transformation  
ON THE FLY                             
-------------------------------------

Max core memory to be used                    ...   4000 MB
Number of batches needed                      ...      1 
Average Memory used per batch                 ...      0 MB
Pair Pair terms per batch                     ...      0 
Total number of pairs                         ...     10 
Memory needed for all IJPairs                 ...      0 MB
   IBatch   1 (of   1)              ... done (    4.175 sec)
Total EXT                           ...           4.175 sec

Detailed timings: 
Reading/generating VMAT                    ...          0.010 sec
Reading 3-index integrals                  ...          0.110 sec
Sorting of data                            ...          1.254 sec
Get Pair1 ...          0.001 sec
Get Pair2 ...          0.001 sec
Get Pair3 ...          0.000 sec
Get Pair4 ...          0.000 sec
Get Pair5 ...          0.000 sec
Get Pair6 ...          0.001 sec
Orthogonalization of the 3-index integrals ...          0.126 sec
Multipl. of 3-index integrals              ...          2.332 sec
GetNewMat              ...          0.064 sec
Generating IJMN (orthog. + mult.)          ...          3.233 sec
Generating IJMN (orthog. + mult.) 1         ...          2.995 sec
Generating IJMN (orthog. + mult.) 2         ...          0.000 sec
Generating IJMN (orthog. + mult.) 3         ...          0.118 sec
Generating IJMN (orthog. + mult.) 4         ...          0.120 sec
Generating IMJN (orthog. + mult.)          ...          0.180 sec

done (    4.383 sec)
---------------------
RI-PNO TRANSFORMATION
---------------------

Total Number of PNOs                   ...   896
Average number of PNOs per pair        ...    89
Maximal number of PNOs per pair        ...    96
   #pairs with  1 -  5 PNOs   :    0
   #pairs with  6 - 10 PNOs   :    0
   #pairs with 11 - 15 PNOs   :    0
   #pairs with 16 - 20 PNOs   :    0
   #pairs with 21 - 25 PNOs   :    0
   #pairs with 26 - 30 PNOs   :    0
   #pairs with 31 - 35 PNOs   :    0
   #pairs with 36 - 40 PNOs   :    0
   #pairs with 41 - 45 PNOs   :    0
   #pairs with 46 - 50 PNOs   :    0
   #pairs with 76 - 80 PNOs   :    2
   #pairs with 81 - 85 PNOs   :    2
   #pairs with 91 - 95 PNOs   :    5
   #pairs with > 96 PNOs      :    1

Generation of (ij|ab)[P] integrals            ... on
Generation of (ia|bc)[P],(ja|bc)[P] integrals ... on
Storage of 3 and 4 external integrals         ... on
Generation of ALL (ka|bc)[P] integrals        ... on
Keep RI integrals in memory                   ... off
PNO Integral generation
Max core memory to be used                    ...   4000 MB
Number of batches needed                      ...      1 
Memory available for IJPairs                  ...   3929 MB
Memory needed per IJPair                      ...     70 MB
Total number of pairs                         ...     10 
Memory needed for all IJPairs                 ...    697 MB

Ibatch:  1 (of  1)
Starting 2-4 index PNO integral generation ... done

Timings:
Total PNO integral transformation time     ...          7.672 sec
Reading/generating VMAT                    ...          0.029 sec
Reading 3-index integrals                  ...          0.104 sec
Sorting of data (for reading)              ...          0.074 sec
      Sorting of data (for reading) 1      ...          0.000 sec
      Sorting of data (for reading) 2      ...          0.070 sec
      Sorting of data (for reading) 3      ...          0.000 sec
      Sorting of data (for reading) 4      ...          0.000 sec
      Sorting of data (for reading) 5      ...          0.003 sec
      Sorting of data (for reading) 6      ...          0.000 sec
Sorting of data (for reading) - only MN    ...          0.070 sec
Sorting of data (for intermediates)        ...          0.014 sec
Sorting of data (for writing)              ...          0.003 sec
Transformation of 3-index int. to PNO basis...          0.727 sec
Orthogonalization of the 3-index integrals ...          0.673 sec
                                        ab ...          0.640 sec
                                        ia ...          0.014 sec
                                        ja ...          0.013 sec
                                        ka ...          0.000 sec
                                        ij ...          0.001 sec
                                      kikj ...          0.005 sec
Multipl. of orthog. 3-index integrals      ...          2.842 sec
Generating of PNO1 integrals               ...          0.003 sec
Generating of K and J integrals            ...          0.017 sec
Generating of PNO3ij integrals             ...          0.285 sec
Generating of PNO3All integrals            ...          0.683 sec
Generating of PNO4 integrals               ...          5.024 sec
Generating of IKJL integrals               ...          0.000 sec
Storing data in files                      ...          3.136 sec
tmPrep ...          0.001 sec
tmPrep2 ...          0.048 sec
tmGenerate ...          6.727 sec
tmRead ...          0.896 sec
tmVIJSum ...          0.000 sec
tmVIMSum ...          0.020 sec
tmVABSum ...          0.876 sec
tmGetPairSum ...          0.000 sec
tmGetAuxAddrSum ...          0.000 sec
tmGetNewMatSum ...          0.004 sec
Size of the 3-external file                ...        56 MB
Size of the 4-external file                ...       647 MB
Size of the IKJL file                      ...         0 MB
Size of the all 3-external file            ...       112 MB
Size of the 1-external file                ...         0 MB

Making pair/pair overlap matrices          ... done (    0.013 sec)
Size of the pair overlap file              ... 8 MB
Redoing the guess amplitudes               ... done (    0.001 sec)

-------------------------
FINAL STARTUP INFORMATION
-------------------------

E(0)                                       ...    -76.064388426
E(L-MP2)                                   ...     -0.286939196
E(L-MP2) including corrections             ...     -0.286939196
Initial E(tot)                             ...    -76.351327621
<T|T>                                      ...      0.059411506
Number of pairs included                   ... 10
Total number of pairs                      ... 10

------------------------------------------------
                  RHF COUPLED CLUSTER ITERATIONS
------------------------------------------------

Number of PNO amplitudes to be optimized   ...        80688
Number of non-PNO amplitudes               ...       278890
Untruncated number of regular amplitudes   ...       278890

Iter       E(tot)           E(Corr)          Delta-E          Residual     Time
  0    -76.343127967     -0.278597039      0.008342157      0.011002885   13.17
                           *** Turning on DIIS ***
  1    -76.346332384     -0.281801456     -0.003204417      0.007161794   11.85
  2    -76.351946371     -0.287415444     -0.005613987      0.002313465   11.28
  3    -76.353171342     -0.288640415     -0.001224971      0.001094683   11.32
  4    -76.353464623     -0.288933695     -0.000293281      0.000393693   11.28
  5    -76.353526265     -0.288995337     -0.000061642      0.000156068   11.38
  6    -76.353541032     -0.289010105     -0.000014768      0.000045668   11.28
  7    -76.353543428     -0.289012500     -0.000002395      0.000015102   11.26
  8    -76.353543976     -0.289013049     -0.000000549      0.000004878   11.25
  9    -76.353543688     -0.289012760      0.000000288      0.000001687   11.27
 10    -76.353543735     -0.289012808     -0.000000047      0.000000878   11.23
               --- The Coupled-Cluster iterations have converged ---

----------------------
COUPLED CLUSTER ENERGY
----------------------

E(0)                                       ...    -76.064388426
E(CORR)(strong-pairs)                      ...     -0.289012808
E(CORR)(weak-pairs)                        ...     -0.000142502
E(CORR)(corrected)                         ...     -0.289155310
E(TOT)                                     ...    -76.353543735
Singles Norm <S|S>**1/2                    ...      0.026299652  
T1 diagnostic                              ...      0.009298331  

------------------
LARGEST AMPLITUDES
------------------
   4->  5   4->  5       0.037752
   3->  5   3->  5       0.035677
   3->  5   3-> 13       0.025723
   3-> 13   3->  5       0.025723
   4-> 13   4->  5       0.024474
   4->  5   4-> 13       0.024474
   3-> 13   3-> 13       0.023546
   4-> 13   4-> 13       0.020344
   1->  6   1->  6       0.020229
   2->  6   2->  6       0.018840
   2->  7   2->  7       0.014940
   1->  7   1->  7       0.014904
   4-> 12   4->  5       0.013921
   4->  5   4-> 12       0.013921
   3->  7   3->  7       0.013768
   1-> 14   1->  6       0.013579


-------------------------------------------
DLPNO BASED TRIPLES CORRECTION
-------------------------------------------

Singles multiplier          ...  1.000000
TCutTNO                     ... 1.000e-09
TCutMP2Pairs                ... 1.000e-06
TCutDOStrong                ... 1.000e-02
TCutMKNStrong               ... 1.000e-02
TCutDOWeak                  ... 2.000e-02
TCutMKNWeak                 ... 1.000e-01

Parameters used in iterative triples
TCutFock                    ... 1.000e-03
TCutWeak                    ... 1.000e-08
TCutWeakGuess               ... 6.000e-06
TCutIter                    ... 1.000e-03
TNOScaleS                   ... 1.000e+01
TNOScaleW                   ... 1.000e+02
ETol                        ... 1.000e-04

Fragment selection                          .... not used
Number of Triples that are to be computed   ...        16
TNO Construction, Integral generation and (T) correction calculation are done consecutively per batch.
Batch size determined on the fly.
Max core memory to be used                        ...   4000 MB
Memory available for Triples                      ...   3922 MB
Total number of Triples                           ...     16 

 . . . . . . . . .
10% done  
20% done  
30% done  
40% done  
50% done  
60% done  
70% done  
80% done  
90% done               (      7.502 sec)

-------------------
Triples Iterations:
-------------------

The T1 Strong/Weak pair is = 13/3 

Iter        E(Triple)      Delta-E            Time
  0     0.000000000000    0.009138951636      7.57
  1    -0.009458283757    0.000319332121      2.74
  2    -0.009486783142    0.000028499385      2.61

------------------
TRIPLES CORRECTION
------------------

The Conventional (T0) is    -0.009153707873
The Truncated    (T0) is    -0.009138951636
The corrected     (T) is    -0.009501539379

Triples timings:
Total time for T0               ...     7.575 sec
Total time for Iterative (T)    ...     5.344 sec
Total time of overall (T)       ...    13.827 sec

Triples List generation         ...     0.000 sec
TNO generation                  ...     0.070 sec
Pair density generation         ...     0.001 sec
Look up tables                  ...     0.000 sec
Generating 3-index integrals    ...     1.486 sec
  Make 4-ind.int. from 3-ind.int...     1.215 sec
  Projecting amplitudes (D + S) ...     0.027 sec
  Downprojecting integrals      ...     1.817 sec
  Energy contr. (sum over a,b,c)...     1.484 sec
Fitting ET(->0)                 ...     0.000 sec

Everything after 3-index        ...     6.016 sec

Timing details:
 TNO integrals                  ...     2.541 sec
   Reading 3-index integrals    ...     0.068 sec
   Sorting integrals            ...     0.566 sec
       Sorting integrals 1      ...     0.000 sec
       Sorting integrals 2      ...     0.075 sec
       Sorting integrals 3      ...     0.027 sec
       Sorting integrals 4      ...     0.000 sec
       Sorting integrals 5      ...     0.002 sec
       Sorting integrals 6      ...     0.462 sec
   Calculating local VM**-1/2   ...     0.030 sec
   Orthogonal. integrals        ...     0.047 sec
   Multipl. 3-index integrals   ...     1.829 sec
   All concerning IRIab (w/TNO) ...     0.615 sec

 Calculate W0/W1                ...     1.459 sec
 W 3-ext contribution           ...     0.827 sec
 W 3-int contribution           ...     0.146 sec
 Sorting W                      ...     0.427 sec

 V exchange contribution        ...     0.726 sec

 Timings for Triples without generation
     of 3-index integrals       ...     6.002 sec
       0 weak pairs             ...     6.002 sec
       1 weak pair              ...     0.000 sec
       2 weak pairs             ...     0.000 sec
       3 weak pairs             ...     0.000 sec
  Extra time for extrapolation  ...     0.000 sec

Number of Triples   (0, 1, 2, 3 weak pairs; overall):     16       0       0       0  (    16)
Number of Atoms     (0, 1, 2, 3 weak pairs; overall):    3.0     0.0     0.0     0.0  (     3)
Number of PAOs      (0, 1, 2, 3 weak pairs; overall):  172.0     0.0     0.0     0.0  (   172)
Number of AuxFcns   (0, 1, 2, 3 weak pairs; overall):  631.6     0.0     0.0     0.0  (   832)
Number of TNOs      (0, 1, 2, 3 weak pairs         ):  135.6     0.0     0.0     0.0
Aver. Number of NTNO, Atoms, PAOs, AuxFcns / Triples:     16   135.6     3.0   172.0   631.6

Triples Correction (T)                     ...     -0.009501539
Final correlation energy                   ...     -0.298656849
E(CCSD)                                    ...    -76.353543735
E(CCSD(T))                                 ...    -76.363045275


------------------------------
PAIR CORRELATION ENERGIES (Eh)
------------------------------


------------------------------------------------------------------------------------------------------
    i     j         EP(Guess)         EP(Final)       Ratio       EP(aa)            EP(ab)     #PNOs  
------------------------------------------------------------------------------------------------------
    4     4  :     -0.030622227      -0.033588570     0.91     -0.000000000      -0.033588570          85 
    3     3  :     -0.030360708      -0.033209526     0.91     -0.000000000      -0.033209526          85 
    2     1  :     -0.032289074      -0.031349070     1.03     -0.010908345      -0.020440724          91 
    1     1  :     -0.026548189      -0.028179479     0.94     -0.000000000      -0.028179479          79 
    2     2  :     -0.026550208      -0.028178402     0.94     -0.000000000      -0.028178402          80 
    4     1  :     -0.028919110      -0.027785083     1.04     -0.010032949      -0.017752135          95 
    4     2  :     -0.028917178      -0.027783915     1.04     -0.010032418      -0.017751497          95 
    3     1  :     -0.028735284      -0.027638294     1.04     -0.009988741      -0.017649552          95 
    3     2  :     -0.028733792      -0.027637129     1.04     -0.009988329      -0.017648800          95 
    4     3  :     -0.025263426      -0.023663055     1.07     -0.008756054      -0.014907001          96 



--------------------------------------------------------------------------------
                                    TIMINGS
--------------------------------------------------------------------------------


Total execution time                   ...      156.641 sec

Localization of occupied MO's          ...        0.257 sec (  0.2%)
Fock Matrix Formation                  ...        1.109 sec (  0.7%)
Global overlap, Fock, MKN matrices     ...        0.188 sec (  0.1%)
Differential overlap integrals         ...        0.356 sec (  0.2%)
Organizing maps                        ...        0.005 sec (  0.0%)
RI 3-index integral generations        ...        1.295 sec (  0.8%)
RI-PNO integral transformation         ...       12.081 sec (  7.7%)
Initial Guess                          ...        0.745 sec (  0.5%)
DIIS Solver                            ...        0.192 sec (  0.1%)
State Vector Update                    ...        0.004 sec (  0.0%)
Sigma-vector construction              ...      126.502 sec ( 80.8%)
  <D|H|D>(0-ext)                       ...        0.099 sec (  0.1% of sigma)
  <D|H|D>(2-ext Fock)                  ...        0.006 sec (  0.0% of sigma)
  <D|H|D>(2-ext)                       ...        0.455 sec (  0.4% of sigma)
  <D|H|D>(4-ext)                       ...       31.498 sec ( 24.9% of sigma)
  <D|H|D>(4-ext-corr)                  ...       81.817 sec ( 64.7% of sigma)
  CCSD doubles correction              ...        0.019 sec (  0.0% of sigma)
  <S|H|S>                              ...        0.149 sec (  0.1% of sigma)
  <S|H|D>(1-ext)                       ...        0.030 sec (  0.0% of sigma)
  <S|H|D>(3-ext)                       ...        0.354 sec (  0.3% of sigma)
  Fock-dressing                        ...        2.820 sec (  2.2% of sigma)
  Singles amplitudes                   ...        0.021 sec (  0.0% of sigma)
  (ik|jl)-dressing                     ...        0.069 sec (  0.1% of sigma)
  (ij|ab),(ia|jb)-dressing             ...        0.307 sec (  0.2% of sigma)
  Pair energies                        ...        0.003 sec (  0.0% of sigma)
Total Time for computing (T)           ...       13.827 sec (  8.8% of ALL)


Maximum memory used throughout the entire MDCI-calculation: 1511.7 MB

-------------------------   --------------------
FINAL SINGLE POINT ENERGY       -76.363045274649
-------------------------   --------------------


                            ***************************************
                            *     ORCA property calculations      *
                            ***************************************


  WARNING: The energy has been calculated at the MDCI level but the densities
           used in the property calculations are still SCF densities
           MDCI response densities have not been calculated 
           use %mdci Density linearized end
           or  %mdci Density unrelaxed end
           or  %mdci Density orbopt end

                                    ---------------------
                                    Active property flags
                                    ---------------------
   (+) Dipole Moment


------------------------------------------------------------------------------
                       ORCA ELECTRIC PROPERTIES CALCULATION
------------------------------------------------------------------------------

Dipole Moment Calculation                       ... on
Quadrupole Moment Calculation                   ... off
Polarizability Calculation                      ... off
GBWName                                         ... frag2.gbw
Electron density                                ... frag2.scfp
The origin for moment calculation is the CENTER OF MASS  = ( 4.742064, -2.324557  0.741422)

-------------
DIPOLE MOMENT
-------------
                                X             Y             Z
Electronic contribution:     -0.08276      -0.06163       0.17422
Nuclear contribution   :      0.39941       0.28095      -0.85009
                        -----------------------------------------
Total Dipole Moment    :      0.31665       0.21932      -0.67587
                        -----------------------------------------
Magnitude (a.u.)       :      0.77793
Magnitude (Debye)      :      1.97734



--------------------
Rotational spectrum 
--------------------
 
Rotational constants in cm-1:    27.180741    13.990221     9.236233 
Rotational constants in MHz : 814858.126026 419416.280498 276895.285639 

 Dipole components along the rotational axes: 
x,y,z [a.u.] :     0.034148    -0.777178     0.000230 
x,y,z [Debye]:     0.086798    -1.975429     0.000584 

 

--------------------------------
SUGGESTED CITATIONS FOR THIS RUN
--------------------------------

Below you find a list of papers that are relevant to this ORCA run
We neither can nor want to force you to cite these paper, but we appreciate if you do
You receive ORCA, which is the product of a lot of hard work by many enthusiastic individuals, for free
The *only* thing we kindly ask in return is that you cite our papers,
We deeply appreciate it, if you show your appreciation for ORCA but *not* just citing the generic ORCA reference.

Please note that relegating all ORCA citations to the supporting information does *not* help us.
SI sections are not index - citations you put there will not count into our citation statistics
But we need these citations in order to attract the funding ressources that allow us to do what we are doing

Therefore, please consider citing at least a few of the papers listed below, if you are a happy ORCA user

In addition to the list printed below, the program has created the file frag2.bibtex that contains the list in bibtex format
In this format, you can import it easily in all common literature databanks and citation aid programs


List of essential papers. We consider these as the minimum necessary citations

  1. Neese,F.
     Software update: the ORCA program system, version 5.0
     WIRES Comput. Molec. Sci., 2022 12(1)e1606
     doi.org/10.1002/wcms.1606

List of papers to cite with high priority. The work reported in these papers was absolutely
necessary for this run to complete.
Our perspective: the developers of density functionals and basis sets usually get cited in chemistry papers
Good! But without the algorithms to do something with them, the functionals or basis sets would not do anything.
Hence, in our opinion, the algorithm design and method developments papers are equally worthy of getting cited

  1. Neese,F.
     An improvement of the resolution of the identity approximation for the formation of the Coulomb matrix
     J. Comp. Chem., 2003 24(14)1740-1747
     doi.org/10.1002/jcc.10318
  2. Neese,F.; Wennmohs,F.; Hansen,A.; Becker,U.
     Efficient, approximate and parallel Hartree-Fock and hybrid DFT calculations. A 'chain-of-spheres' algorithm for the Hartree-Fock exchange
     Chem. Phys., 2009 356(1-3)98-109
     doi.org/10.1016/j.chemphys.2008.10.036
  3. Neese,F.; Hansen,A.; Liakos,D.G.
     Efficient and accurate approximations to the local coupled cluster singles doubles method using a truncated pair natural orbital basis
     J. Chem. Phys., 2009 131 064103
     doi.org/10.1063/1.3173827
  4. Neese,F.; Wennmohs,F.; Hansen,A.
     Efficient and accurate local approximations to coupled-electron pair approaches: An attempt to revive the pair natural orbital method
     J. Chem. Phys., 2009 130 114108
     doi.org/10.1063/1.3086717
  5. Riplinger,C.; Neese,F.
     An efficient and near linear scaling pair natural orbital based local coupled cluster method
     J. Chem. Phys., 2013 138(3)Art. No. 034106
     doi.org/10.1063/1.4773581
  6. Riplinger,C.; Sandhoefer,B.; Hansen,A.; Neese,F.
     Natural triple excitations in local coupled cluster calculations with pair natural orbitals
     J. Chem. Phys., 2013 139(13)Art. No. 134101
     doi.org/10.1063/1.4821834
  7. Riplinger,C.; Pinski,P.; Becker,U.; Valeev,E.F.; Neese,F.
     Sparse maps-A systematic infrastructure for reduced-scaling electronic structure methods. II. Linear scaling domain based pair natural orbital coupled cluster theory
     J. Chem. Phys., 2016 144 
     doi.org/10.1063/1.4939030
  8. Bistoni,G.; Riplinger,C.; Minenkov,Y.; Cavallo,L.; Auer,A.A.; Neese,F.
     Treating Subvalence Correlation Effects in Domain Based Pair Natural Orbital Coupled Cluster Calculations: An Out-of-the-Box Approach
     J. Theo. Comp. Chem., 2017 13 3220-3227
     doi.org/10.1021/acs.jctc.7b00352
  9. Guo,Y.; Riplinger,C.; Becker,U.; Liakos,D.G.; Minenkov,Y.; Cavallo,L.; Neese,F.
     Communication: An improved linear scaling perturbative triples correction for the domain based local pair-natural orbital based singles and doubles coupled cluster method DLPNO-CCSD(T)
     J. Chem. Phys., 2018 148 5
     doi.org/10.1063/1.5011798
 10. Helmich-Paris,B.; de Souza,B.; Neese,F.; Izsk,R.
     An improved chain of spheres for exchange algorithm
     J. Chem. Phys., 2021 155 104109
     doi.org/doi: 10.1063/5.0058766.

List of suggested additional citations. These are papers that are important in the 'surrounding' of 
of this run, or papers that preceded the highly important papers. If you like your results we are grateful for a citation.

  1. Izsak,R.; Neese,F.
     An overlap fitted chain of spheres exchange method
     J. Chem. Phys., 2011 135 144105
     doi.org/10.1063/1.3646921
  2. Izsak,R.; Hansen,A.; Neese,F.
     The resolution of identity and chain of spheres approximations for the LPNO-CCSD singles Fock term
     Molec. Phys., 2012 110 2413-2417
     doi.org/10.1080/00268976.2012.687466
  3. Neese,F.
     The ORCA program system
     WIRES Comput. Molec. Sci., 2012 2(1)73-78
     doi.org/10.1002/wcms.81
  4. Izsak,R.; Neese,F.; Klopper,W.
     Robust fitting techniques in the chain of spheres approximation to the Fock exchange: The role of the complementary space
     J. Chem. Phys., 2013 139 
     doi.org/10.1063/1.4819264
  5. Neese,F.
     Software update: the ORCA program system, version 4.0
     WIRES Comput. Molec. Sci., 2018 8(1)1-6
     doi.org/10.1002/wcms.1327
  6. Neese,F.; Wennmohs,F.; Becker,U.; Riplinger,C.
     The ORCA quantum chemistry program package
     J. Chem. Phys., 2020 152 Art. No. L224108
     doi.org/10.1063/5.0004608

Timings for individual modules:

Sum of individual times         ...      166.642 sec (=   2.777 min)
GTO integral calculation        ...        1.257 sec (=   0.021 min)   0.8 %
SCF iterations                  ...        8.162 sec (=   0.136 min)   4.9 %
MDCI module                     ...      157.223 sec (=   2.620 min)  94.3 %
                             ****ORCA TERMINATED NORMALLY****
TOTAL RUN TIME: 0 days 0 hours 2 minutes 47 seconds 234 msec