                                 *****************
                                 * O   R   C   A *
                                 *****************

                                            #,                                       
                                            ###                                      
                                            ####                                     
                                            #####                                    
                                            ######                                   
                                           ########,                                 
                                     ,,################,,,,,                         
                               ,,#################################,,                 
                          ,,##########################################,,             
                       ,#########################################, ''#####,          
                    ,#############################################,,   '####,        
                  ,##################################################,,,,####,       
                ,###########''''           ''''###############################       
              ,#####''   ,,,,##########,,,,          '''####'''          '####       
            ,##' ,,,,###########################,,,                        '##       
           ' ,,###''''                  '''############,,,                           
         ,,##''                                '''############,,,,        ,,,,,,###''
      ,#''                                            '''#######################'''  
     '                                                          ''''####''''         
             ,#######,   #######,   ,#######,      ##                                
            ,#'     '#,  ##    ##  ,#'     '#,    #''#        ,####,   ,####,        
            ##       ##  ##   ,#'  ##            #'  '#       #'       #'  '#        
            ##       ##  #######   ##           ,######,      #####,   #    #        
            '#,     ,#'  ##    ##  '#,     ,#' ,#      #,     #,   #   #,  ,#        
             '#######'   ##     ##  '#######'  #'      '#     '####' # '####'.alpha  



                  #######################################################
                  #                        -***-                        #
                  #          Department of theory and spectroscopy      #
                  #    Directorship and core code : Frank Neese         #
                  #        Max Planck Institute fuer Kohlenforschung    #
                  #                Kaiser Wilhelm Platz 1               #
                  #                 D-45470 Muelheim/Ruhr               #
                  #                      Germany                        #
                  #                                                     #
                  #                  All rights reserved                #
                  #                        -***-                        #
                  #######################################################


                         Program Version 6.0  -  CURRENT   -
                                (GIT: $c308fa1697$)
                ($2024-01-11 19:20:57 +0100 $)

                  !                     WARNING:                         !
                  !         This is a DEVELOPMENT version                !

                         (BUILD: $Fr 12. Jan 00:10:32 CET 2024$)


 With contributions from (in alphabetic order):
   Daniel Aravena         : Magnetic Suceptibility
   Michael Atanasov       : Ab Initio Ligand Field Theory (pilot matlab implementation)
   Alexander A. Auer      : GIAO ZORA, VPT2 properties, NMR spectrum
   Ute Becker             : Parallelization
   Giovanni Bistoni       : ED, misc. LED, open-shell LED, HFLD
   Martin Brehm           : Molecular dynamics
   Dmytro Bykov           : SCF Hessian
   Vijay G. Chilkuri      : MRCI spin determinant printing, contributions to CSF-ICE
   Dipayan Datta          : RHF DLPNO-CCSD density
   Achintya Kumar Dutta   : EOM-CC, STEOM-CC
   Dmitry Ganyushin       : Spin-Orbit,Spin-Spin,Magnetic field MRCI
   Miquel Garcia          : C-PCM and meta-GGA Hessian, CCSD/C-PCM, Gaussian charge scheme
   Yang Guo               : DLPNO-NEVPT2, F12-NEVPT2, CIM, IAO-localization
   Andreas Hansen         : Spin unrestricted coupled pair/coupled cluster methods
   Benjamin Helmich-Paris : MC-RPA, TRAH-(SCF,CASSCF), AVAS, COSX integrals, SCF dyn. polar.
   Lee Huntington         : MR-EOM, pCC
   Robert Izsak           : Overlap fitted RIJCOSX, COSX-SCS-MP3, EOM
   Marcus Kettner         : VPT2
   Christian Kollmar      : KDIIS, OOCD, Brueckner-CCSD(T), CCSD density, CASPT2, CASPT2-K, improved NEVPT2
   Simone Kossmann        : Meta GGA functionals, TD-DFT gradient, OOMP2, MP2 Hessian
   Martin Krupicka        : Initial AUTO-CI
   Lucas Lang             : DCDCAS
   Marvin Lechner         : AUTO-CI (C++ implementation), FIC-MRCC
   Dagmar Lenk            : GEPOL surface, SMD
   Dimitrios Liakos       : Extrapolation schemes; Compound Job, initial MDCI parallelization
   Dimitrios Manganas     : Further ROCIS development; embedding schemes
   Dimitrios Pantazis     : SARC Basis sets
   Anastasios Papadopoulos: AUTO-CI, single reference methods and gradients
   Taras Petrenko         : DFT Hessian,TD-DFT gradient, ASA, ECA, R-Raman, ABS, FL, XAS/XES, NRVS
   Peter Pinski           : DLPNO-MP2, DLPNO-MP2 Gradient
   Christoph Reimann      : Effective Core Potentials
   Marius Retegan         : Local ZFS, SOC
   Christoph Riplinger    : Optimizer, TS searches, QM/MM, DLPNO-CCSD(T), (RO)-DLPNO pert. Triples
   Tobias Risthaus        : Range-separated hybrids, TD-DFT gradient, RPA, STAB
   Michael Roemelt        : Original ROCIS implementation
   Masaaki Saitow         : Open-shell DLPNO-CCSD energy and density
   Barbara Sandhoefer     : DKH picture change effects
   Avijit Sen             : IP-ROCIS
   Kantharuban Sivalingam : CASSCF convergence, NEVPT2, FIC-MRCI
   Bernardo de Souza      : ESD, SOC TD-DFT
   Georgi Stoychev        : AutoAux, RI-MP2 NMR, DLPNO-MP2 response
   Willem Van den Heuvel  : Paramagnetic NMR
   Boris Wezisla          : Elementary symmetry handling
   Frank Wennmohs         : Technical directorship


 We gratefully acknowledge several colleagues who have allowed us to
 interface, adapt or use parts of their codes:
   Stefan Grimme, W. Hujo, H. Kruse, P. Pracht,  : VdW corrections, initial TS optimization,
                  C. Bannwarth, S. Ehlert          DFT functionals, gCP, sTDA/sTD-DF
   Ed Valeev, F. Pavosevic, A. Kumar             : LibInt (2-el integral package), F12 methods
   Garnet Chan, S. Sharma, J. Yang, R. Olivares  : DMRG
   Ulf Ekstrom                                   : XCFun DFT Library
   Mihaly Kallay                                 : mrcc  (arbitrary order and MRCC methods)
   Jiri Pittner, Ondrej Demel                    : Mk-CCSD
   Frank Weinhold                                : gennbo (NPA and NBO analysis)
   Christopher J. Cramer and Donald G. Truhlar   : smd solvation model
   Lars Goerigk                                  : TD-DFT with DH, B97 family of functionals
   V. Asgeirsson, H. Jonsson                     : NEB implementation
   FAccTs GmbH                                   : IRC, NEB, NEB-TS, DLPNO-Multilevel, CI-OPT
                                                   MM, QMMM, 2- and 3-layer-ONIOM, Crystal-QMMM,
                                                   LR-CPCM, SF, NACMEs, symmetry and pop. for TD-DFT,
                                                   nearIR, NL-DFT gradient (VV10), updates on ESD,
                                                   ML-optimized integration grids
   S Lehtola, MJT Oliveira, MAL Marques          : LibXC Library
   Liviu Ungur et al                             : ANISO software


 Your calculation uses the libint2 library for the computation of 2-el integrals
 For citations please refer to: http://libint.valeyev.net

 Your ORCA version has been built with support for libXC version: 5.2.2
 For citations please refer to: https://tddft.org/programs/libxc/

 This ORCA versions uses:
   CBLAS   interface :  Fast vector & matrix operations
   LAPACKE interface :  Fast linear algebra routines
   SCALAPACK package :  Parallel linear algebra routines
   Shared memory     :  Shared parallel matrices


================================================================================

----- Orbital basis set information -----
Your calculation utilizes the basis: def2-TZVP(-f)
   F. Weigend and R. Ahlrichs, Phys. Chem. Chem. Phys. 7, 3297 (2005).

----- AuxJ basis set information -----
Your calculation utilizes the auxiliary basis: def2/J
   F. Weigend, Phys. Chem. Chem. Phys. 8, 1057 (2006).

----- AuxC basis set information -----
Your calculation utilizes the auxiliary basis: def2-TZVP/C
  H-La, Hf-Rn : A. Hellweg, C. Hattig, S. Hofener and W. Klopper, Theor. Chem. Acc. 117, 587 (2007).
        Ce-Lu : J. Chmela and M. E. Harding, Mol. Phys. (2018).

================================================================================
                                        WARNINGS
                       Please study these warnings very carefully!
================================================================================


WARNING: Post HF methods need fully converged wavefunctions
  ===> : Setting SCFConvForced true
         You can overwrite this default with %scf ConvForced false 

================================================================================
                                       INPUT FILE
================================================================================
NAME = 1-6.inp
|  1> ! DLPNO-CCSD RIJCOSX def2-TZVP(-f) def2/J def2-tzvp/C verytightscf LED
|  2> 
|  3> %pal nprocs 16 end
|  4> %maxcore 8000
|  5> %scf maxiter 999 end
|  6> %mdci TCutPairs 1e-5 printlevel 3
|  7>       LocMet FB LocTol 1.0e-6 LocRandom 1
|  8>       HFFragInter {1 1} {2 2}
|  9>       end
| 10> 
| 11> *xyz 0 1
| 12> C(1)       3.959814    2.561396    5.671998
| 13> C(1)       5.124688    2.711507    6.307297
| 14> H(1)       5.910980    2.624495    5.781307
| 15> C(1)       5.318750    3.001413    7.756160
| 16> H(1)       5.764958    2.338040    8.269299
| 17> C(1)       4.922108    4.116628    8.413564
| 18> C(1)       4.187615    5.217888    7.728235
| 19> H(1)       4.592983    6.076768    7.705738
| 20> C(1)       2.996500    5.073177    7.144286
| 21> H(1)       2.598240    5.854076    6.778112
| 22> C(1)       2.240560    3.812194    7.014673
| 23> H(1)       1.374630    3.783577    7.404357
| 24> C(1)       2.667365    2.709888    6.398299
| 25> H(1)       2.096330    1.951116    6.424481
| 26> C(1)       3.855528    2.189510    4.180727
| 27> C(1)       3.206858    3.365610    3.443570
| 28> H(1)       2.312363    3.542338    3.829289
| 29> H(1)       3.759862    4.177210    3.568431
| 30> C(1)       3.066693    3.071653    1.950331
| 31> H(1)       2.641663    3.853971    1.494983
| 32> C(1)       4.418385    2.801990    1.331483
| 33> H(1)       4.992310    3.603436    1.423104
| 34> H(1)       4.310148    2.608715    0.366596
| 35> C(1)       5.082741    1.613149    2.021845
| 36> H(1)       5.984031    1.450291    1.620378
| 37> C(1)       5.232054    1.929266    3.531282
| 38> H(1)       5.671955    1.167507    3.985505
| 39> H(1)       5.806469    2.727454    3.645513
| 40> C(1)       2.984490    0.916534    3.972879
| 41> H(1)       3.414105    0.144085    4.418806
| 42> H(1)       2.094116    1.053032    4.383598
| 43> C(1)       2.820046    0.619609    2.471962
| 44> H(1)       2.244245   -0.189108    2.351826
| 45> C(1)       2.172758    1.820210    1.768524
| 46> H(1)       1.276608    1.990313    2.153342
| 47> H(1)       2.063503    1.624174    0.804312
| 48> C(1)       4.205273    0.362816    1.851089
| 49> H(1)       4.633831   -0.410619    2.296313
| 50> H(1)       4.107182    0.151182    0.888958
| 51> C(1)       5.254459    4.351654    9.886415
| 52> C(1)       3.942843    4.629858   10.626355
| 53> H(1)       3.337150    3.853519   10.523739
| 54> H(1)       3.499931    5.418498   10.223876
| 55> C(1)       4.188483    4.891347   12.124403
| 56> H(1)       3.319013    5.074687   12.583126
| 57> C(1)       4.866138    3.667012   12.762937
| 58> H(1)       5.027716    3.836876   13.724759
| 59> H(1)       4.275091    2.876862   12.682734
| 60> C(1)       6.198220    3.393588   12.052721
| 61> H(1)       6.631672    2.589020   12.458659
| 62> C(1)       5.931826    3.131816   10.562519
| 63> H(1)       5.347601    2.338169   10.468170
| 64> H(1)       6.788160    2.937070   10.105455
| 65> C(1)       6.192447    5.559403   10.079583
| 66> H(1)       5.786533    6.362172    9.666193
| 67> H(1)       7.054843    5.383533    9.626344
| 68> C(1)       6.443690    5.823950   11.579544
| 69> H(1)       7.040792    6.620087   11.677689
| 70> C(1)       5.124238    6.098831   12.281970
| 71> H(1)       4.699544    6.903322   11.891414
| 72> H(1)       5.287472    6.271327   13.243060
| 73> C(1)       7.120822    4.604047   12.215462
| 74> H(1)       7.988732    4.429725   11.772262
| 75> H(1)       7.289890    4.773633   13.176074
| 76> C(2)       9.674114    5.786946    5.671998
| 77> C(2)      10.838988    5.937057    6.307297
| 78> H(2)      11.625280    5.850045    5.781307
| 79> C(2)      11.033050    6.226963    7.756160
| 80> H(2)      11.479258    5.563590    8.269299
| 81> C(2)      10.636408    7.342178    8.413564
| 82> C(2)       9.901915    8.443438    7.728235
| 83> H(2)      10.307283    9.302318    7.705738
| 84> C(2)       8.710800    8.298727    7.144286
| 85> H(2)       8.312540    9.079626    6.778112
| 86> C(2)       7.954860    7.037744    7.014673
| 87> H(2)       7.088930    7.009127    7.404357
| 88> C(2)       8.381665    5.935438    6.398299
| 89> H(2)       7.810630    5.176666    6.424481
| 90> C(2)       9.569828    5.415060    4.180727
| 91> C(2)       8.921158    6.591160    3.443570
| 92> H(2)       8.026663    6.767888    3.829289
| 93> H(2)       9.474162    7.402760    3.568431
| 94> C(2)       8.780993    6.297203    1.950331
| 95> H(2)       8.355963    7.079521    1.494983
| 96> C(2)      10.132685    6.027540    1.331483
| 97> H(2)      10.706610    6.828986    1.423104
| 98> H(2)      10.024448    5.834265    0.366596
| 99> C(2)      10.797041    4.838699    2.021845
|100> H(2)      11.698331    4.675841    1.620378
|101> C(2)      10.946354    5.154816    3.531282
|102> H(2)      11.386255    4.393057    3.985505
|103> H(2)      11.520769    5.953004    3.645513
|104> C(2)       8.698790    4.142084    3.972879
|105> H(2)       9.128405    3.369635    4.418806
|106> H(2)       7.808416    4.278582    4.383598
|107> C(2)       8.534346    3.845159    2.471962
|108> H(2)       7.958545    3.036442    2.351826
|109> C(2)       7.887058    5.045760    1.768524
|110> H(2)       6.990908    5.215863    2.153342
|111> H(2)       7.777803    4.849724    0.804312
|112> C(2)       9.919573    3.588366    1.851089
|113> H(2)      10.348131    2.814931    2.296313
|114> H(2)       9.821482    3.376732    0.888958
|115> C(2)      10.968759    7.577204    9.886415
|116> C(2)       9.657143    7.855408   10.626355
|117> H(2)       9.051450    7.079069   10.523739
|118> H(2)       9.214231    8.644048   10.223876
|119> C(2)       9.902783    8.116897   12.124403
|120> H(2)       9.033313    8.300237   12.583126
|121> C(2)      10.580438    6.892562   12.762937
|122> H(2)      10.742016    7.062426   13.724759
|123> H(2)       9.989391    6.102412   12.682734
|124> C(2)      11.912520    6.619138   12.052721
|125> H(2)      12.345972    5.814570   12.458659
|126> C(2)      11.646126    6.357366   10.562519
|127> H(2)      11.061901    5.563719   10.468170
|128> H(2)      12.502460    6.162620   10.105455
|129> C(2)      11.906747    8.784953   10.079583
|130> H(2)      11.500833    9.587722    9.666193
|131> H(2)      12.769143    8.609083    9.626344
|132> C(2)      12.157990    9.049500   11.579544
|133> H(2)      12.755092    9.845637   11.677689
|134> C(2)      10.838538    9.324381   12.281970
|135> H(2)      10.413844   10.128872   11.891414
|136> H(2)      11.001772    9.496877   13.243060
|137> C(2)      12.835122    7.829597   12.215462
|138> H(2)      13.703032    7.655275   11.772262
|139> H(2)      13.004190    7.999183   13.176074
|140> *
|141> 
|142>                          ****END OF INPUT****
================================================================================

                       ****************************
                       * Single Point Calculation *
                       ****************************

---------------------------------
CARTESIAN COORDINATES (ANGSTROEM)
---------------------------------
  C      3.959814    2.561396    5.671998
  C      5.124688    2.711507    6.307297
  H      5.910980    2.624495    5.781307
  C      5.318750    3.001413    7.756160
  H      5.764958    2.338040    8.269299
  C      4.922108    4.116628    8.413564
  C      4.187615    5.217888    7.728235
  H      4.592983    6.076768    7.705738
  C      2.996500    5.073177    7.144286
  H      2.598240    5.854076    6.778112
  C      2.240560    3.812194    7.014673
  H      1.374630    3.783577    7.404357
  C      2.667365    2.709888    6.398299
  H      2.096330    1.951116    6.424481
  C      3.855528    2.189510    4.180727
  C      3.206858    3.365610    3.443570
  H      2.312363    3.542338    3.829289
  H      3.759862    4.177210    3.568431
  C      3.066693    3.071653    1.950331
  H      2.641663    3.853971    1.494983
  C      4.418385    2.801990    1.331483
  H      4.992310    3.603436    1.423104
  H      4.310148    2.608715    0.366596
  C      5.082741    1.613149    2.021845
  H      5.984031    1.450291    1.620378
  C      5.232054    1.929266    3.531282
  H      5.671955    1.167507    3.985505
  H      5.806469    2.727454    3.645513
  C      2.984490    0.916534    3.972879
  H      3.414105    0.144085    4.418806
  H      2.094116    1.053032    4.383598
  C      2.820046    0.619609    2.471962
  H      2.244245   -0.189108    2.351826
  C      2.172758    1.820210    1.768524
  H      1.276608    1.990313    2.153342
  H      2.063503    1.624174    0.804312
  C      4.205273    0.362816    1.851089
  H      4.633831   -0.410619    2.296313
  H      4.107182    0.151182    0.888958
  C      5.254459    4.351654    9.886415
  C      3.942843    4.629858   10.626355
  H      3.337150    3.853519   10.523739
  H      3.499931    5.418498   10.223876
  C      4.188483    4.891347   12.124403
  H      3.319013    5.074687   12.583126
  C      4.866138    3.667012   12.762937
  H      5.027716    3.836876   13.724759
  H      4.275091    2.876862   12.682734
  C      6.198220    3.393588   12.052721
  H      6.631672    2.589020   12.458659
  C      5.931826    3.131816   10.562519
  H      5.347601    2.338169   10.468170
  H      6.788160    2.937070   10.105455
  C      6.192447    5.559403   10.079583
  H      5.786533    6.362172    9.666193
  H      7.054843    5.383533    9.626344
  C      6.443690    5.823950   11.579544
  H      7.040792    6.620087   11.677689
  C      5.124238    6.098831   12.281970
  H      4.699544    6.903322   11.891414
  H      5.287472    6.271327   13.243060
  C      7.120822    4.604047   12.215462
  H      7.988732    4.429725   11.772262
  H      7.289890    4.773633   13.176074
  C      9.674114    5.786946    5.671998
  C     10.838988    5.937057    6.307297
  H     11.625280    5.850045    5.781307
  C     11.033050    6.226963    7.756160
  H     11.479258    5.563590    8.269299
  C     10.636408    7.342178    8.413564
  C      9.901915    8.443438    7.728235
  H     10.307283    9.302318    7.705738
  C      8.710800    8.298727    7.144286
  H      8.312540    9.079626    6.778112
  C      7.954860    7.037744    7.014673
  H      7.088930    7.009127    7.404357
  C      8.381665    5.935438    6.398299
  H      7.810630    5.176666    6.424481
  C      9.569828    5.415060    4.180727
  C      8.921158    6.591160    3.443570
  H      8.026663    6.767888    3.829289
  H      9.474162    7.402760    3.568431
  C      8.780993    6.297203    1.950331
  H      8.355963    7.079521    1.494983
  C     10.132685    6.027540    1.331483
  H     10.706610    6.828986    1.423104
  H     10.024448    5.834265    0.366596
  C     10.797041    4.838699    2.021845
  H     11.698331    4.675841    1.620378
  C     10.946354    5.154816    3.531282
  H     11.386255    4.393057    3.985505
  H     11.520769    5.953004    3.645513
  C      8.698790    4.142084    3.972879
  H      9.128405    3.369635    4.418806
  H      7.808416    4.278582    4.383598
  C      8.534346    3.845159    2.471962
  H      7.958545    3.036442    2.351826
  C      7.887058    5.045760    1.768524
  H      6.990908    5.215863    2.153342
  H      7.777803    4.849724    0.804312
  C      9.919573    3.588366    1.851089
  H     10.348131    2.814931    2.296313
  H      9.821482    3.376732    0.888958
  C     10.968759    7.577204    9.886415
  C      9.657143    7.855408   10.626355
  H      9.051450    7.079069   10.523739
  H      9.214231    8.644048   10.223876
  C      9.902783    8.116897   12.124403
  H      9.033313    8.300237   12.583126
  C     10.580438    6.892562   12.762937
  H     10.742016    7.062426   13.724759
  H      9.989391    6.102412   12.682734
  C     11.912520    6.619138   12.052721
  H     12.345972    5.814570   12.458659
  C     11.646126    6.357366   10.562519
  H     11.061901    5.563719   10.468170
  H     12.502460    6.162620   10.105455
  C     11.906747    8.784953   10.079583
  H     11.500833    9.587722    9.666193
  H     12.769143    8.609083    9.626344
  C     12.157990    9.049500   11.579544
  H     12.755092    9.845637   11.677689
  C     10.838538    9.324381   12.281970
  H     10.413844   10.128872   11.891414
  H     11.001772    9.496877   13.243060
  C     12.835122    7.829597   12.215462
  H     13.703032    7.655275   11.772262
  H     13.004190    7.999183   13.176074

----------------------------
CARTESIAN COORDINATES (A.U.)
----------------------------
  NO LB      ZA    FRAG     MASS         X           Y           Z
   0 C     6.0000    1    12.011    7.482964    4.840337   10.718523
   1 C     6.0000    1    12.011    9.684257    5.124006   11.919064
   2 H     1.0000    1     1.008   11.170133    4.959577   10.925087
   3 C     6.0000    1    12.011   10.050981    5.671849   14.657018
   4 H     1.0000    1     1.008   10.894192    4.418255   15.626710
   5 C     6.0000    1    12.011    9.301436    7.779300   15.899332
   6 C     6.0000    1    12.011    7.913446    9.860379   14.604248
   7 H     1.0000    1     1.008    8.679480   11.483427   14.561734
   8 C     6.0000    1    12.011    5.662564    9.586915   13.500744
   9 H     1.0000    1     1.008    4.909962   11.062600   12.808775
  10 C     6.0000    1    12.011    4.234045    7.204003   13.255811
  11 H     1.0000    1     1.008    2.597674    7.149924   13.992207
  12 C     6.0000    1    12.011    5.040589    5.120946   12.091033
  13 H     1.0000    1     1.008    3.961490    3.687075   12.140510
  14 C     6.0000    1    12.011    7.285892    4.137574    7.900429
  15 C     6.0000    1    12.011    6.060083    6.360081    6.507404
  16 H     1.0000    1     1.008    4.369733    6.694049    7.236307
  17 H     1.0000    1     1.008    7.105109    7.893783    6.743357
  18 C     6.0000    1    12.011    5.795210    5.804583    3.685591
  19 H     1.0000    1     1.008    4.992020    7.282950    2.825108
  20 C     6.0000    1    12.011    8.349538    5.294994    2.516138
  21 H     1.0000    1     1.008    9.434099    6.809507    2.689277
  22 H     1.0000    1     1.008    8.144999    4.929757    0.692766
  23 C     6.0000    1    12.011    9.604988    3.048410    3.820733
  24 H     1.0000    1     1.008   11.308180    2.740653    3.062071
  25 C     6.0000    1    12.011    9.887149    3.645784    6.673156
  26 H     1.0000    1     1.008   10.718442    2.206268    7.531513
  27 H     1.0000    1     1.008   10.972636    5.154141    6.889021
  28 C     6.0000    1    12.011    5.639869    1.731998    7.507653
  29 H     1.0000    1     1.008    6.451723    0.272281    8.350333
  30 H     1.0000    1     1.008    3.957306    1.989942    8.283800
  31 C     6.0000    1    12.011    5.329115    1.170891    4.671331
  32 H     1.0000    1     1.008    4.241008   -0.357362    4.444307
  33 C     6.0000    1    12.011    4.105918    3.439698    3.342026
  34 H     1.0000    1     1.008    2.412440    3.761146    4.069227
  35 H     1.0000    1     1.008    3.899456    3.069244    1.519929
  36 C     6.0000    1    12.011    7.946814    0.685623    3.498051
  37 H     1.0000    1     1.008    8.756672   -0.775957    4.339403
  38 H     1.0000    1     1.008    7.761449    0.285693    1.679887
  39 C     6.0000    1    12.011    9.929488    8.223434   18.682617
  40 C     6.0000    1    12.011    7.450893    8.749164   20.080901
  41 H     1.0000    1     1.008    6.306300    7.282096   19.886985
  42 H     1.0000    1     1.008    6.613911   10.239477   19.320326
  43 C     6.0000    1    12.011    7.915086    9.243306   22.911801
  44 H     1.0000    1     1.008    6.272026    9.589769   23.778662
  45 C     6.0000    1    12.011    9.195668    6.929648   24.118456
  46 H     1.0000    1     1.008    9.501006    7.250645   25.936036
  47 H     1.0000    1     1.008    8.078751    5.436481   23.966894
  48 C     6.0000    1    12.011   11.712938    6.412952   22.776342
  49 H     1.0000    1     1.008   12.532044    4.892539   23.543454
  50 C     6.0000    1    12.011   11.209527    5.918275   19.960268
  51 H     1.0000    1     1.008   10.105501    4.418499   19.781974
  52 H     1.0000    1     1.008   12.827763    5.550258   19.096542
  53 C     6.0000    1    12.011   11.702029   10.505749   19.047651
  54 H     1.0000    1     1.008   10.934963   12.022763   18.266458
  55 H     1.0000    1     1.008   13.331721   10.173403   18.191154
  56 C     6.0000    1    12.011   12.176809   11.005671   21.882167
  57 H     1.0000    1     1.008   13.305169   12.510151   22.067634
  58 C     6.0000    1    12.011    9.683406   11.525120   23.209560
  59 H     1.0000    1     1.008    8.880851   13.045388   22.471516
  60 H     1.0000    1     1.008    9.991874   11.851091   25.025757
  61 C     6.0000    1    12.011   13.456403    8.700388   23.083878
  62 H     1.0000    1     1.008   15.096516    8.370967   22.246351
  63 H     1.0000    1     1.008   13.775896    9.020859   24.899171
  64 C     6.0000    2    12.011   18.281426   10.935743   10.718523
  65 C     6.0000    2    12.011   20.482719   11.219412   11.919064
  66 H     1.0000    2     1.008   21.968595   11.054983   10.925087
  67 C     6.0000    2    12.011   20.849443   11.767255   14.657018
  68 H     1.0000    2     1.008   21.692654   10.513661   15.626710
  69 C     6.0000    2    12.011   20.099898   13.874706   15.899332
  70 C     6.0000    2    12.011   18.711908   15.955785   14.604248
  71 H     1.0000    2     1.008   19.477942   17.578833   14.561734
  72 C     6.0000    2    12.011   16.461026   15.682321   13.500744
  73 H     1.0000    2     1.008   15.708424   17.158007   12.808775
  74 C     6.0000    2    12.011   15.032507   13.299409   13.255811
  75 H     1.0000    2     1.008   13.396136   13.245330   13.992207
  76 C     6.0000    2    12.011   15.839051   11.216352   12.091033
  77 H     1.0000    2     1.008   14.759952    9.782481   12.140510
  78 C     6.0000    2    12.011   18.084354   10.232980    7.900429
  79 C     6.0000    2    12.011   16.858545   12.455487    6.507404
  80 H     1.0000    2     1.008   15.168195   12.789455    7.236307
  81 H     1.0000    2     1.008   17.903572   13.989189    6.743357
  82 C     6.0000    2    12.011   16.593672   11.899989    3.685591
  83 H     1.0000    2     1.008   15.790482   13.378356    2.825108
  84 C     6.0000    2    12.011   19.148000   11.390400    2.516138
  85 H     1.0000    2     1.008   20.232561   12.904913    2.689277
  86 H     1.0000    2     1.008   18.943461   11.025163    0.692766
  87 C     6.0000    2    12.011   20.403451    9.143816    3.820733
  88 H     1.0000    2     1.008   22.106642    8.836059    3.062071
  89 C     6.0000    2    12.011   20.685611    9.741191    6.673156
  90 H     1.0000    2     1.008   21.516904    8.301675    7.531513
  91 H     1.0000    2     1.008   21.771098   11.249547    6.889021
  92 C     6.0000    2    12.011   16.438331    7.827404    7.507653
  93 H     1.0000    2     1.008   17.250185    6.367687    8.350333
  94 H     1.0000    2     1.008   14.755768    8.085348    8.283800
  95 C     6.0000    2    12.011   16.127577    7.266297    4.671331
  96 H     1.0000    2     1.008   15.039470    5.738044    4.444307
  97 C     6.0000    2    12.011   14.904380    9.535105    3.342026
  98 H     1.0000    2     1.008   13.210902    9.856553    4.069227
  99 H     1.0000    2     1.008   14.697918    9.164650    1.519929
 100 C     6.0000    2    12.011   18.745276    6.781029    3.498051
 101 H     1.0000    2     1.008   19.555134    5.319449    4.339403
 102 H     1.0000    2     1.008   18.559911    6.381099    1.679887
 103 C     6.0000    2    12.011   20.727951   14.318840   18.682617
 104 C     6.0000    2    12.011   18.249356   14.844570   20.080901
 105 H     1.0000    2     1.008   17.104762   13.377502   19.886985
 106 H     1.0000    2     1.008   17.412373   16.334883   19.320326
 107 C     6.0000    2    12.011   18.713548   15.338712   22.911801
 108 H     1.0000    2     1.008   17.070488   15.685175   23.778662
 109 C     6.0000    2    12.011   19.994130   13.025055   24.118456
 110 H     1.0000    2     1.008   20.299468   13.346051   25.936036
 111 H     1.0000    2     1.008   18.877213   11.531887   23.966894
 112 C     6.0000    2    12.011   22.511400   12.508358   22.776342
 113 H     1.0000    2     1.008   23.330506   10.987945   23.543454
 114 C     6.0000    2    12.011   22.007989   12.013681   19.960268
 115 H     1.0000    2     1.008   20.903963   10.513905   19.781974
 116 H     1.0000    2     1.008   23.626225   11.645664   19.096542
 117 C     6.0000    2    12.011   22.500491   16.601155   19.047651
 118 H     1.0000    2     1.008   21.733425   18.118169   18.266458
 119 H     1.0000    2     1.008   24.130183   16.268809   18.191154
 120 C     6.0000    2    12.011   22.975271   17.101077   21.882167
 121 H     1.0000    2     1.008   24.103631   18.605558   22.067634
 122 C     6.0000    2    12.011   20.481869   17.620526   23.209560
 123 H     1.0000    2     1.008   19.679313   19.140794   22.471516
 124 H     1.0000    2     1.008   20.790336   17.946497   25.025757
 125 C     6.0000    2    12.011   24.254865   14.795794   23.083878
 126 H     1.0000    2     1.008   25.894978   14.466373   22.246351
 127 H     1.0000    2     1.008   24.574358   15.116265   24.899171

----------------------------------------------
CARTESIAN COORDINATES OF FRAGMENTS (ANGSTROEM)
----------------------------------------------

 FRAGMENT 1 
  C     3.959814    2.561396    5.671998
  C     5.124688    2.711507    6.307297
  H     5.910980    2.624495    5.781307
  C     5.318750    3.001413    7.756160
  H     5.764958    2.338040    8.269299
  C     4.922108    4.116628    8.413564
  C     4.187615    5.217888    7.728235
  H     4.592983    6.076768    7.705738
  C     2.996500    5.073177    7.144286
  H     2.598240    5.854076    6.778112
  C     2.240560    3.812194    7.014673
  H     1.374630    3.783577    7.404357
  C     2.667365    2.709888    6.398299
  H     2.096330    1.951116    6.424481
  C     3.855528    2.189510    4.180727
  C     3.206858    3.365610    3.443570
  H     2.312363    3.542338    3.829289
  H     3.759862    4.177210    3.568431
  C     3.066693    3.071653    1.950331
  H     2.641663    3.853971    1.494983
  C     4.418385    2.801990    1.331483
  H     4.992310    3.603436    1.423104
  H     4.310148    2.608715    0.366596
  C     5.082741    1.613149    2.021845
  H     5.984031    1.450291    1.620378
  C     5.232054    1.929266    3.531282
  H     5.671955    1.167507    3.985505
  H     5.806469    2.727454    3.645513
  C     2.984490    0.916534    3.972879
  H     3.414105    0.144085    4.418806
  H     2.094116    1.053032    4.383598
  C     2.820046    0.619609    2.471962
  H     2.244245   -0.189108    2.351826
  C     2.172758    1.820210    1.768524
  H     1.276608    1.990313    2.153342
  H     2.063503    1.624174    0.804312
  C     4.205273    0.362816    1.851089
  H     4.633831   -0.410619    2.296313
  H     4.107182    0.151182    0.888958
  C     5.254459    4.351654    9.886415
  C     3.942843    4.629858   10.626355
  H     3.337150    3.853519   10.523739
  H     3.499931    5.418498   10.223876
  C     4.188483    4.891347   12.124403
  H     3.319013    5.074687   12.583126
  C     4.866138    3.667012   12.762937
  H     5.027716    3.836876   13.724759
  H     4.275091    2.876862   12.682734
  C     6.198220    3.393588   12.052721
  H     6.631672    2.589020   12.458659
  C     5.931826    3.131816   10.562519
  H     5.347601    2.338169   10.468170
  H     6.788160    2.937070   10.105455
  C     6.192447    5.559403   10.079583
  H     5.786533    6.362172    9.666193
  H     7.054843    5.383533    9.626344
  C     6.443690    5.823950   11.579544
  H     7.040792    6.620087   11.677689
  C     5.124238    6.098831   12.281970
  H     4.699544    6.903322   11.891414
  H     5.287472    6.271327   13.243060
  C     7.120822    4.604047   12.215462
  H     7.988732    4.429725   11.772262
  H     7.289890    4.773633   13.176074

 FRAGMENT 2 
  C     9.674114    5.786946    5.671998
  C    10.838988    5.937057    6.307297
  H    11.625280    5.850045    5.781307
  C    11.033050    6.226963    7.756160
  H    11.479258    5.563590    8.269299
  C    10.636408    7.342178    8.413564
  C     9.901915    8.443438    7.728235
  H    10.307283    9.302318    7.705738
  C     8.710800    8.298727    7.144286
  H     8.312540    9.079626    6.778112
  C     7.954860    7.037744    7.014673
  H     7.088930    7.009127    7.404357
  C     8.381665    5.935438    6.398299
  H     7.810630    5.176666    6.424481
  C     9.569828    5.415060    4.180727
  C     8.921158    6.591160    3.443570
  H     8.026663    6.767888    3.829289
  H     9.474162    7.402760    3.568431
  C     8.780993    6.297203    1.950331
  H     8.355963    7.079521    1.494983
  C    10.132685    6.027540    1.331483
  H    10.706610    6.828986    1.423104
  H    10.024448    5.834265    0.366596
  C    10.797041    4.838699    2.021845
  H    11.698331    4.675841    1.620378
  C    10.946354    5.154816    3.531282
  H    11.386255    4.393057    3.985505
  H    11.520769    5.953004    3.645513
  C     8.698790    4.142084    3.972879
  H     9.128405    3.369635    4.418806
  H     7.808416    4.278582    4.383598
  C     8.534346    3.845159    2.471962
  H     7.958545    3.036442    2.351826
  C     7.887058    5.045760    1.768524
  H     6.990908    5.215863    2.153342
  H     7.777803    4.849724    0.804312
  C     9.919573    3.588366    1.851089
  H    10.348131    2.814931    2.296313
  H     9.821482    3.376732    0.888958
  C    10.968759    7.577204    9.886415
  C     9.657143    7.855408   10.626355
  H     9.051450    7.079069   10.523739
  H     9.214231    8.644048   10.223876
  C     9.902783    8.116897   12.124403
  H     9.033313    8.300237   12.583126
  C    10.580438    6.892562   12.762937
  H    10.742016    7.062426   13.724759
  H     9.989391    6.102412   12.682734
  C    11.912520    6.619138   12.052721
  H    12.345972    5.814570   12.458659
  C    11.646126    6.357366   10.562519
  H    11.061901    5.563719   10.468170
  H    12.502460    6.162620   10.105455
  C    11.906747    8.784953   10.079583
  H    11.500833    9.587722    9.666193
  H    12.769143    8.609083    9.626344
  C    12.157990    9.049500   11.579544
  H    12.755092    9.845637   11.677689
  C    10.838538    9.324381   12.281970
  H    10.413844   10.128872   11.891414
  H    11.001772    9.496877   13.243060
  C    12.835122    7.829597   12.215462
  H    13.703032    7.655275   11.772262
  H    13.004190    7.999183   13.176074

--------------------------------
INTERNAL COORDINATES (ANGSTROEM)
--------------------------------
 C      0   0   0     0.000000000000     0.00000000     0.00000000
 C      1   0   0     1.335316279987     0.00000000     0.00000000
 H      2   1   0     0.949995619731   116.63568539     0.00000000
 C      2   1   3     1.490271633444   126.72774967   180.00059175
 H      4   2   1     0.949987868193   116.77365815   116.46112058
 C      4   2   1     1.353960631483   126.45083228   296.46021536
 C      6   4   2     1.490613763820   121.98106181     1.29319480
 H      7   6   4     0.950002202541   117.94116824   241.28774010
 C      7   6   4     1.334425963232   124.11821816    61.28534210
 H      9   7   6     0.949998775829   116.98329199   176.75604347
 C      9   7   6     1.475914272462   126.03362524   356.75669448
 H     11   9   7     0.950003851279   117.16602838   120.83680733
 C     11   9   7     1.333100871479   125.66766336   300.83860899
 H     13  11   9     0.950000745438   117.08053889   177.06699349
 C      1   2   3     1.540475239085   123.14535206     3.29211940
 C     15   1   2     1.532117626538   108.00598163   244.48935052
 H     16  15   1     0.990016786711   109.39667782   300.98058108
 H     16  15   1     0.989999117847   109.39772201    59.11383332
 C     16  15   1     1.528338855161   111.17825343   180.04753802
 H     19  16  15     1.000006877540   109.47520018   180.00801913
 C     19  16  15     1.510881280424   110.63834177   300.74097727
 H     21  19  16     0.990000002112   109.64842670   298.29847745
 H     21  19  16     0.989988584057   109.64802787   179.68981584
 C     21  19  16     1.526863290888   110.06219217    58.99397096
 H     24  21  19     1.000011072115   109.72104823   181.08812684
 C     15   1   2     1.544127448185   112.79863387     3.42791247
 H     26  15   1     0.990004140199   109.44026841    61.30122705
 H     26  15   1     0.990002725718   109.44034801   303.08799399
 C     15   1   2     1.556398369674   111.38384718   124.74478699
 H     29  15   1     0.989998684421   109.58178018   297.07148737
 H     29  15   1     0.989993768082   109.58230665    55.55432756
 C     29  15   1     1.538817118975   110.35772757   176.31265735
 H     32  29  15     1.000001318092   109.55772234   181.10735866
 C     32  29  15     1.534682226387   109.94948311   301.56265148
 H     34  32  29     0.990002397084   109.75750460   299.14798496
 H     34  32  29     0.989985630838   109.75883185   180.32664987
 C     24  21  19     1.537023198735   109.55767611    60.57274216
 H     37  24  21     0.989993974105   109.78168316   179.90464770
 H     37  24  21     0.990003462316   109.78123059    61.03765723
 C      6   4   2     1.528065599403   122.07078425   184.10932198
 C     40   6   4     1.531419341876   107.90107035   234.17926792
 H     41  40   6     0.989998129607   109.35737821    59.51450598
 H     41  40   6     0.990006785222   109.35706705   301.45642024
 C     41  40   6     1.540410113257   111.35509067   180.48570576
 H     44  41  40     1.000009213572   109.79026476   179.70202073
 C     44  41  40     1.538160641938   109.80664641   300.50090379
 H     46  44  41     0.989981206016   109.79466280   179.73983226
 H     46  44  41     0.990003080762   109.79381746   298.63348310
 C     46  44  41     1.534147941092   109.40347513    59.18622609
 H     49  46  44     0.999997981384   109.38000003   180.87753387
 C     49  46  44     1.536291750946   109.19938181   300.54532250
 H     51  49  46     0.989998053046   109.35188890   299.17663111
 H     51  49  46     0.990020921076   109.35089832   181.13118537
 C     40   6   4     1.541360766131   111.94203650   114.78970021
 H     54  40   6     0.989997744875   109.48314410    55.79578424
 H     54  40   6     0.989991267051   109.48374413   297.49962174
 C     54  40   6     1.543693998751   110.79938258   176.64707863
 H     57  54  40     0.999998681098   109.20700481   180.97458803
 C     57  54  40     1.519840593596   109.80236532   300.69420233
 H     59  57  54     0.990002399923   109.69825971   298.89834252
 H     59  57  54     0.989997069123   109.69695859   180.19364316
 C     49  46  44     1.530650212872   109.46303661    61.04924550
 H     62  49  46     0.989990993789   109.97287022   179.07952324
 H     62  49  46     0.990009502259   109.97212994    59.83766864
 C     56  54  40     4.760270465817   147.62638722    91.75309888
 C     65  56  54     1.335316279987    95.41167068   146.10877994
 H     66  65  56     0.949995619731   116.63568539   166.50278293
 C     66  65  56     1.490271633444   126.72774967   346.50337469
 H     68  66  65     0.949987868193   116.77365815   116.46112058
 C     68  66  65     1.353960631483   126.45083228   296.46021536
 C     70  68  66     1.490613763820   121.98106181     1.29319480
 H     71  70  68     0.950002202541   117.94116824   241.28774010
 C     71  70  68     1.334425963232   124.11821816    61.28534210
 H     73  71  70     0.949998775829   116.98329199   176.75604347
 C     73  71  70     1.475914272462   126.03362524   356.75669448
 H     75  73  71     0.950003851279   117.16602838   120.83680733
 C     75  73  71     1.333100871479   125.66766336   300.83860899
 H     77  75  73     0.950000745438   117.08053889   177.06699349
 C     65  56  54     1.540475239085   138.28435715   304.79645438
 C     79  65  56     1.532117626538   108.00598163    90.09331393
 H     80  79  65     0.990016786711   109.39667782   300.98058108
 H     80  79  65     0.989999117847   109.39772201    59.11383332
 C     80  79  65     1.528338855161   111.17825343   180.04753802
 H     83  80  79     1.000006877540   109.47520018   180.00801913
 C     83  80  79     1.510881280424   110.63834177   300.74097727
 H     85  83  80     0.990000002112   109.64842670   298.29847745
 H     85  83  80     0.989988584057   109.64802787   179.68981584
 C     85  83  80     1.526863290888   110.06219217    58.99397096
 H     88  85  83     1.000011072115   109.72104823   181.08812684
 C     79  65  56     1.544127448185   112.79863387   209.03187588
 H     90  79  65     0.990004140199   109.44026841    61.30122705
 H     90  79  65     0.990002725718   109.44034801   303.08799399
 C     79  65  56     1.556398369674   111.38384718   330.34875040
 H     93  79  65     0.989998684421   109.58178018   297.07148737
 H     93  79  65     0.989993768082   109.58230665    55.55432756
 C     93  79  65     1.538817118975   110.35772757   176.31265735
 H     96  93  79     1.000001318092   109.55772234   181.10735866
 C     96  93  79     1.534682226387   109.94948311   301.56265148
 H     98  96  93     0.990002397084   109.75750460   299.14798496
 H     98  96  93     0.989985630838   109.75883185   180.32664987
 C     88  85  83     1.537023198735   109.55767611    60.57274216
 H    101  88  85     0.989993974105   109.78168316   179.90464770
 H    101  88  85     0.990003462316   109.78123059    61.03765723
 C     70  68  66     1.528065599403   122.07078425   184.10932198
 C    104  70  68     1.531419341876   107.90107035   234.17926792
 H    105 104  70     0.989998129607   109.35737821    59.51450598
 H    105 104  70     0.990006785222   109.35706705   301.45642024
 C    105 104  70     1.540410113257   111.35509067   180.48570576
 H    108 105 104     1.000009213572   109.79026476   179.70202073
 C    108 105 104     1.538160641938   109.80664641   300.50090379
 H    110 108 105     0.989981206016   109.79466280   179.73983226
 H    110 108 105     0.990003080762   109.79381746   298.63348310
 C    110 108 105     1.534147941092   109.40347513    59.18622609
 H    113 110 108     0.999997981384   109.38000003   180.87753387
 C    113 110 108     1.536291750946   109.19938181   300.54532250
 H    115 113 110     0.989998053046   109.35188890   299.17663111
 H    115 113 110     0.990020921076   109.35089832   181.13118537
 C    104  70  68     1.541360766131   111.94203650   114.78970021
 H    118 104  70     0.989997744875   109.48314410    55.79578424
 H    118 104  70     0.989991267051   109.48374413   297.49962174
 C    118 104  70     1.543693998751   110.79938258   176.64707863
 H    121 118 104     0.999998681098   109.20700481   180.97458803
 C    121 118 104     1.519840593596   109.80236532   300.69420233
 H    123 121 118     0.990002399923   109.69825971   298.89834252
 H    123 121 118     0.989997069123   109.69695859   180.19364316
 C    113 110 108     1.530650212872   109.46303661    61.04924550
 H    126 113 110     0.989990993789   109.97287022   179.07952324
 H    126 113 110     0.990009502259   109.97212994    59.83766864

---------------------------
INTERNAL COORDINATES (A.U.)
---------------------------
 C      0   0   0     0.000000000000     0.00000000     0.00000000
 C      1   0   0     2.523382071342     0.00000000     0.00000000
 H      2   1   0     1.795231549716   116.63568539     0.00000000
 C      2   1   3     2.816205252361   126.72774967   180.00059175
 H      4   2   1     1.795216901433   116.77365815   116.46112058
 C      4   2   1     2.558614789613   126.45083228   296.46021536
 C      6   4   2     2.816851785074   121.98106181     1.29319480
 H      7   6   4     1.795243989425   117.94116824   241.28774010
 C      7   6   4     2.521699616502   124.11821816    61.28534210
 H      9   7   6     1.795237513878   116.98329199   176.75604347
 C      9   7   6     2.789073772099   126.03362524   356.75669448
 H     11   9   7     1.795247105088   117.16602838   120.83680733
 C     11   9   7     2.519195555986   125.66766336   300.83860899
 H     13  11   9     1.795241235899   117.08053889   177.06699349
 C      1   2   3     2.911076317957   123.14535206     3.29211940
 C     15   1   2     2.895282719111   108.00598163   244.48935052
 H     16  15   1     1.870860594869   109.39667782   300.98058108
 H     16  15   1     1.870827205554   109.39772201    59.11383332
 C     16  15   1     2.888141876085   111.17825343   180.04753802
 H     19  16  15     1.889739130589   109.47520018   180.00801913
 C     19  16  15     2.855151840870   110.63834177   300.74097727
 H     21  19  16     1.870828876573   109.64842670   298.29847745
 H     21  19  16     1.870807299576   109.64802787   179.68981584
 C     21  19  16     2.885353463716   110.06219217    58.99397096
 H     24  21  19     1.889747057187   109.72104823   181.08812684
 C     15   1   2     2.917977992940   112.79863387     3.42791247
 H     26  15   1     1.870836696424   109.44026841    61.30122705
 H     26  15   1     1.870834023443   109.44034801   303.08799399
 C     15   1   2     2.941166673965   111.38384718   124.74478699
 H     29  15   1     1.870826386498   109.58178018   297.07148737
 H     29  15   1     1.870817095964   109.58230665    55.55432756
 C     29  15   1     2.907942925052   110.35772757   176.31265735
 H     32  29  15     1.889728624754   109.55772234   181.10735866
 C     32  29  15     2.900129110468   109.94948311   301.56265148
 H     34  32  29     1.870833402415   109.75750460   299.14798496
 H     34  32  29     1.870801718800   109.75883185   180.32664987
 C     24  21  19     2.904552907092   109.55767611    60.57274216
 H     37  24  21     1.870817485292   109.78168316   179.90464770
 H     37  24  21     1.870835415411   109.78123059    61.03765723
 C      6   4   2     2.887625497537   122.07078425   184.10932198
 C     40   6   4     2.893963152336   107.90107035   234.17926792
 H     41  40   6     1.870825338052   109.35737821    59.51450598
 H     41  40   6     1.870841694793   109.35706705   301.45642024
 C     41  40   6     2.910953247979   111.35509067   180.48570576
 H     44  41  40     1.889743545049   109.79026476   179.70202073
 C     44  41  40     2.906702363239   109.80664641   300.50090379
 H     46  44  41     1.870793357098   109.79466280   179.73983226
 H     46  44  41     1.870834694378   109.79381746   298.63348310
 C     46  44  41     2.899119457583   109.40347513    59.18622609
 H     49  46  44     1.889722319290   109.38000003   180.87753387
 C     49  46  44     2.903170671090   109.19938181   300.54532250
 H     51  49  46     1.870825193372   109.35188890   299.17663111
 H     51  49  46     1.870868407686   109.35089832   181.13118537
 C     40   6   4     2.912749721559   111.94203650   114.78970021
 H     54  40   6     1.870824611013   109.48314410    55.79578424
 H     54  40   6     1.870812369700   109.48374413   297.49962174
 C     54  40   6     2.917158892217   110.79938258   176.64707863
 H     57  54  40     1.889723641558   109.20700481   180.97458803
 C     57  54  40     2.872082489112   109.80236532   300.69420233
 H     59  57  54     1.870833407779   109.69825971   298.89834252
 H     59  57  54     1.870823334027   109.69695859   180.19364316
 C     49  46  44     2.892509709157   109.46303661    61.04924550
 H     62  49  46     1.870811853310   109.97287022   179.07952324
 H     62  49  46     1.870846829250   109.97212994    59.83766864
 C     56  54  40     8.995607503787   147.62638722    91.75309888
 C     65  56  54     2.523382071342    95.41167068   146.10877994
 H     66  65  56     1.795231549716   116.63568539   166.50278293
 C     66  65  56     2.816205252361   126.72774967   346.50337469
 H     68  66  65     1.795216901433   116.77365815   116.46112058
 C     68  66  65     2.558614789613   126.45083228   296.46021536
 C     70  68  66     2.816851785074   121.98106181     1.29319480
 H     71  70  68     1.795243989425   117.94116824   241.28774010
 C     71  70  68     2.521699616502   124.11821816    61.28534210
 H     73  71  70     1.795237513878   116.98329199   176.75604347
 C     73  71  70     2.789073772099   126.03362524   356.75669448
 H     75  73  71     1.795247105088   117.16602838   120.83680733
 C     75  73  71     2.519195555986   125.66766336   300.83860899
 H     77  75  73     1.795241235899   117.08053889   177.06699349
 C     65  56  54     2.911076317957   138.28435715   304.79645438
 C     79  65  56     2.895282719111   108.00598163    90.09331393
 H     80  79  65     1.870860594869   109.39667782   300.98058108
 H     80  79  65     1.870827205554   109.39772201    59.11383332
 C     80  79  65     2.888141876085   111.17825343   180.04753802
 H     83  80  79     1.889739130589   109.47520018   180.00801913
 C     83  80  79     2.855151840870   110.63834177   300.74097727
 H     85  83  80     1.870828876573   109.64842670   298.29847745
 H     85  83  80     1.870807299576   109.64802787   179.68981584
 C     85  83  80     2.885353463716   110.06219217    58.99397096
 H     88  85  83     1.889747057187   109.72104823   181.08812684
 C     79  65  56     2.917977992940   112.79863387   209.03187588
 H     90  79  65     1.870836696424   109.44026841    61.30122705
 H     90  79  65     1.870834023443   109.44034801   303.08799399
 C     79  65  56     2.941166673965   111.38384718   330.34875040
 H     93  79  65     1.870826386498   109.58178018   297.07148737
 H     93  79  65     1.870817095964   109.58230665    55.55432756
 C     93  79  65     2.907942925052   110.35772757   176.31265735
 H     96  93  79     1.889728624754   109.55772234   181.10735866
 C     96  93  79     2.900129110468   109.94948311   301.56265148
 H     98  96  93     1.870833402415   109.75750460   299.14798496
 H     98  96  93     1.870801718800   109.75883185   180.32664987
 C     88  85  83     2.904552907092   109.55767611    60.57274216
 H    101  88  85     1.870817485292   109.78168316   179.90464770
 H    101  88  85     1.870835415411   109.78123059    61.03765723
 C     70  68  66     2.887625497537   122.07078425   184.10932198
 C    104  70  68     2.893963152336   107.90107035   234.17926792
 H    105 104  70     1.870825338052   109.35737821    59.51450598
 H    105 104  70     1.870841694793   109.35706705   301.45642024
 C    105 104  70     2.910953247979   111.35509067   180.48570576
 H    108 105 104     1.889743545049   109.79026476   179.70202073
 C    108 105 104     2.906702363239   109.80664641   300.50090379
 H    110 108 105     1.870793357098   109.79466280   179.73983226
 H    110 108 105     1.870834694378   109.79381746   298.63348310
 C    110 108 105     2.899119457583   109.40347513    59.18622609
 H    113 110 108     1.889722319290   109.38000003   180.87753387
 C    113 110 108     2.903170671090   109.19938181   300.54532250
 H    115 113 110     1.870825193372   109.35188890   299.17663111
 H    115 113 110     1.870868407686   109.35089832   181.13118537
 C    104  70  68     2.912749721559   111.94203650   114.78970021
 H    118 104  70     1.870824611013   109.48314410    55.79578424
 H    118 104  70     1.870812369700   109.48374413   297.49962174
 C    118 104  70     2.917158892217   110.79938258   176.64707863
 H    121 118 104     1.889723641558   109.20700481   180.97458803
 C    121 118 104     2.872082489112   109.80236532   300.69420233
 H    123 121 118     1.870833407779   109.69825971   298.89834252
 H    123 121 118     1.870823334027   109.69695859   180.19364316
 C    113 110 108     2.892509709157   109.46303661    61.04924550
 H    126 113 110     1.870811853310   109.97287022   179.07952324
 H    126 113 110     1.870846829250   109.97212994    59.83766864

---------------------
BASIS SET INFORMATION
---------------------
There are 2 groups of distinct atoms

 Group   1 Type C   : 11s6p2d contracted to 5s3p2d pattern {62111/411/11}
 Group   2 Type H   : 5s1p contracted to 3s1p pattern {311/1}

Atom   0C    basis set group =>   1
Atom   1C    basis set group =>   1
Atom   2H    basis set group =>   2
Atom   3C    basis set group =>   1
Atom   4H    basis set group =>   2
Atom   5C    basis set group =>   1
Atom   6C    basis set group =>   1
Atom   7H    basis set group =>   2
Atom   8C    basis set group =>   1
Atom   9H    basis set group =>   2
Atom  10C    basis set group =>   1
Atom  11H    basis set group =>   2
Atom  12C    basis set group =>   1
Atom  13H    basis set group =>   2
Atom  14C    basis set group =>   1
Atom  15C    basis set group =>   1
Atom  16H    basis set group =>   2
Atom  17H    basis set group =>   2
Atom  18C    basis set group =>   1
Atom  19H    basis set group =>   2
Atom  20C    basis set group =>   1
Atom  21H    basis set group =>   2
Atom  22H    basis set group =>   2
Atom  23C    basis set group =>   1
Atom  24H    basis set group =>   2
Atom  25C    basis set group =>   1
Atom  26H    basis set group =>   2
Atom  27H    basis set group =>   2
Atom  28C    basis set group =>   1
Atom  29H    basis set group =>   2
Atom  30H    basis set group =>   2
Atom  31C    basis set group =>   1
Atom  32H    basis set group =>   2
Atom  33C    basis set group =>   1
Atom  34H    basis set group =>   2
Atom  35H    basis set group =>   2
Atom  36C    basis set group =>   1
Atom  37H    basis set group =>   2
Atom  38H    basis set group =>   2
Atom  39C    basis set group =>   1
Atom  40C    basis set group =>   1
Atom  41H    basis set group =>   2
Atom  42H    basis set group =>   2
Atom  43C    basis set group =>   1
Atom  44H    basis set group =>   2
Atom  45C    basis set group =>   1
Atom  46H    basis set group =>   2
Atom  47H    basis set group =>   2
Atom  48C    basis set group =>   1
Atom  49H    basis set group =>   2
Atom  50C    basis set group =>   1
Atom  51H    basis set group =>   2
Atom  52H    basis set group =>   2
Atom  53C    basis set group =>   1
Atom  54H    basis set group =>   2
Atom  55H    basis set group =>   2
Atom  56C    basis set group =>   1
Atom  57H    basis set group =>   2
Atom  58C    basis set group =>   1
Atom  59H    basis set group =>   2
Atom  60H    basis set group =>   2
Atom  61C    basis set group =>   1
Atom  62H    basis set group =>   2
Atom  63H    basis set group =>   2
Atom  64C    basis set group =>   1
Atom  65C    basis set group =>   1
Atom  66H    basis set group =>   2
Atom  67C    basis set group =>   1
Atom  68H    basis set group =>   2
Atom  69C    basis set group =>   1
Atom  70C    basis set group =>   1
Atom  71H    basis set group =>   2
Atom  72C    basis set group =>   1
Atom  73H    basis set group =>   2
Atom  74C    basis set group =>   1
Atom  75H    basis set group =>   2
Atom  76C    basis set group =>   1
Atom  77H    basis set group =>   2
Atom  78C    basis set group =>   1
Atom  79C    basis set group =>   1
Atom  80H    basis set group =>   2
Atom  81H    basis set group =>   2
Atom  82C    basis set group =>   1
Atom  83H    basis set group =>   2
Atom  84C    basis set group =>   1
Atom  85H    basis set group =>   2
Atom  86H    basis set group =>   2
Atom  87C    basis set group =>   1
Atom  88H    basis set group =>   2
Atom  89C    basis set group =>   1
Atom  90H    basis set group =>   2
Atom  91H    basis set group =>   2
Atom  92C    basis set group =>   1
Atom  93H    basis set group =>   2
Atom  94H    basis set group =>   2
Atom  95C    basis set group =>   1
Atom  96H    basis set group =>   2
Atom  97C    basis set group =>   1
Atom  98H    basis set group =>   2
Atom  99H    basis set group =>   2
Atom 100C    basis set group =>   1
Atom 101H    basis set group =>   2
Atom 102H    basis set group =>   2
Atom 103C    basis set group =>   1
Atom 104C    basis set group =>   1
Atom 105H    basis set group =>   2
Atom 106H    basis set group =>   2
Atom 107C    basis set group =>   1
Atom 108H    basis set group =>   2
Atom 109C    basis set group =>   1
Atom 110H    basis set group =>   2
Atom 111H    basis set group =>   2
Atom 112C    basis set group =>   1
Atom 113H    basis set group =>   2
Atom 114C    basis set group =>   1
Atom 115H    basis set group =>   2
Atom 116H    basis set group =>   2
Atom 117C    basis set group =>   1
Atom 118H    basis set group =>   2
Atom 119H    basis set group =>   2
Atom 120C    basis set group =>   1
Atom 121H    basis set group =>   2
Atom 122C    basis set group =>   1
Atom 123H    basis set group =>   2
Atom 124H    basis set group =>   2
Atom 125C    basis set group =>   1
Atom 126H    basis set group =>   2
Atom 127H    basis set group =>   2
---------------------------------
AUXILIARY/J BASIS SET INFORMATION
---------------------------------
There are 2 groups of distinct atoms

 Group   1 Type C   : 12s5p4d2f1g contracted to 6s4p3d1f1g pattern {711111/2111/211/2/1}
 Group   2 Type H   : 5s2p1d contracted to 3s1p1d pattern {311/2/1}

Atom   0C    basis set group =>   1
Atom   1C    basis set group =>   1
Atom   2H    basis set group =>   2
Atom   3C    basis set group =>   1
Atom   4H    basis set group =>   2
Atom   5C    basis set group =>   1
Atom   6C    basis set group =>   1
Atom   7H    basis set group =>   2
Atom   8C    basis set group =>   1
Atom   9H    basis set group =>   2
Atom  10C    basis set group =>   1
Atom  11H    basis set group =>   2
Atom  12C    basis set group =>   1
Atom  13H    basis set group =>   2
Atom  14C    basis set group =>   1
Atom  15C    basis set group =>   1
Atom  16H    basis set group =>   2
Atom  17H    basis set group =>   2
Atom  18C    basis set group =>   1
Atom  19H    basis set group =>   2
Atom  20C    basis set group =>   1
Atom  21H    basis set group =>   2
Atom  22H    basis set group =>   2
Atom  23C    basis set group =>   1
Atom  24H    basis set group =>   2
Atom  25C    basis set group =>   1
Atom  26H    basis set group =>   2
Atom  27H    basis set group =>   2
Atom  28C    basis set group =>   1
Atom  29H    basis set group =>   2
Atom  30H    basis set group =>   2
Atom  31C    basis set group =>   1
Atom  32H    basis set group =>   2
Atom  33C    basis set group =>   1
Atom  34H    basis set group =>   2
Atom  35H    basis set group =>   2
Atom  36C    basis set group =>   1
Atom  37H    basis set group =>   2
Atom  38H    basis set group =>   2
Atom  39C    basis set group =>   1
Atom  40C    basis set group =>   1
Atom  41H    basis set group =>   2
Atom  42H    basis set group =>   2
Atom  43C    basis set group =>   1
Atom  44H    basis set group =>   2
Atom  45C    basis set group =>   1
Atom  46H    basis set group =>   2
Atom  47H    basis set group =>   2
Atom  48C    basis set group =>   1
Atom  49H    basis set group =>   2
Atom  50C    basis set group =>   1
Atom  51H    basis set group =>   2
Atom  52H    basis set group =>   2
Atom  53C    basis set group =>   1
Atom  54H    basis set group =>   2
Atom  55H    basis set group =>   2
Atom  56C    basis set group =>   1
Atom  57H    basis set group =>   2
Atom  58C    basis set group =>   1
Atom  59H    basis set group =>   2
Atom  60H    basis set group =>   2
Atom  61C    basis set group =>   1
Atom  62H    basis set group =>   2
Atom  63H    basis set group =>   2
Atom  64C    basis set group =>   1
Atom  65C    basis set group =>   1
Atom  66H    basis set group =>   2
Atom  67C    basis set group =>   1
Atom  68H    basis set group =>   2
Atom  69C    basis set group =>   1
Atom  70C    basis set group =>   1
Atom  71H    basis set group =>   2
Atom  72C    basis set group =>   1
Atom  73H    basis set group =>   2
Atom  74C    basis set group =>   1
Atom  75H    basis set group =>   2
Atom  76C    basis set group =>   1
Atom  77H    basis set group =>   2
Atom  78C    basis set group =>   1
Atom  79C    basis set group =>   1
Atom  80H    basis set group =>   2
Atom  81H    basis set group =>   2
Atom  82C    basis set group =>   1
Atom  83H    basis set group =>   2
Atom  84C    basis set group =>   1
Atom  85H    basis set group =>   2
Atom  86H    basis set group =>   2
Atom  87C    basis set group =>   1
Atom  88H    basis set group =>   2
Atom  89C    basis set group =>   1
Atom  90H    basis set group =>   2
Atom  91H    basis set group =>   2
Atom  92C    basis set group =>   1
Atom  93H    basis set group =>   2
Atom  94H    basis set group =>   2
Atom  95C    basis set group =>   1
Atom  96H    basis set group =>   2
Atom  97C    basis set group =>   1
Atom  98H    basis set group =>   2
Atom  99H    basis set group =>   2
Atom 100C    basis set group =>   1
Atom 101H    basis set group =>   2
Atom 102H    basis set group =>   2
Atom 103C    basis set group =>   1
Atom 104C    basis set group =>   1
Atom 105H    basis set group =>   2
Atom 106H    basis set group =>   2
Atom 107C    basis set group =>   1
Atom 108H    basis set group =>   2
Atom 109C    basis set group =>   1
Atom 110H    basis set group =>   2
Atom 111H    basis set group =>   2
Atom 112C    basis set group =>   1
Atom 113H    basis set group =>   2
Atom 114C    basis set group =>   1
Atom 115H    basis set group =>   2
Atom 116H    basis set group =>   2
Atom 117C    basis set group =>   1
Atom 118H    basis set group =>   2
Atom 119H    basis set group =>   2
Atom 120C    basis set group =>   1
Atom 121H    basis set group =>   2
Atom 122C    basis set group =>   1
Atom 123H    basis set group =>   2
Atom 124H    basis set group =>   2
Atom 125C    basis set group =>   1
Atom 126H    basis set group =>   2
Atom 127H    basis set group =>   2
---------------------------------
AUXILIARY/C BASIS SET INFORMATION
---------------------------------
There are 2 groups of distinct atoms

 Group   1 Type C   : 8s6p5d3f1g contracted to 8s6p4d3f1g pattern {11111111/111111/2111/111/1}
 Group   2 Type H   : 4s3p2d contracted to 4s2p1d pattern {1111/21/2}

Atom   0C    basis set group =>   1
Atom   1C    basis set group =>   1
Atom   2H    basis set group =>   2
Atom   3C    basis set group =>   1
Atom   4H    basis set group =>   2
Atom   5C    basis set group =>   1
Atom   6C    basis set group =>   1
Atom   7H    basis set group =>   2
Atom   8C    basis set group =>   1
Atom   9H    basis set group =>   2
Atom  10C    basis set group =>   1
Atom  11H    basis set group =>   2
Atom  12C    basis set group =>   1
Atom  13H    basis set group =>   2
Atom  14C    basis set group =>   1
Atom  15C    basis set group =>   1
Atom  16H    basis set group =>   2
Atom  17H    basis set group =>   2
Atom  18C    basis set group =>   1
Atom  19H    basis set group =>   2
Atom  20C    basis set group =>   1
Atom  21H    basis set group =>   2
Atom  22H    basis set group =>   2
Atom  23C    basis set group =>   1
Atom  24H    basis set group =>   2
Atom  25C    basis set group =>   1
Atom  26H    basis set group =>   2
Atom  27H    basis set group =>   2
Atom  28C    basis set group =>   1
Atom  29H    basis set group =>   2
Atom  30H    basis set group =>   2
Atom  31C    basis set group =>   1
Atom  32H    basis set group =>   2
Atom  33C    basis set group =>   1
Atom  34H    basis set group =>   2
Atom  35H    basis set group =>   2
Atom  36C    basis set group =>   1
Atom  37H    basis set group =>   2
Atom  38H    basis set group =>   2
Atom  39C    basis set group =>   1
Atom  40C    basis set group =>   1
Atom  41H    basis set group =>   2
Atom  42H    basis set group =>   2
Atom  43C    basis set group =>   1
Atom  44H    basis set group =>   2
Atom  45C    basis set group =>   1
Atom  46H    basis set group =>   2
Atom  47H    basis set group =>   2
Atom  48C    basis set group =>   1
Atom  49H    basis set group =>   2
Atom  50C    basis set group =>   1
Atom  51H    basis set group =>   2
Atom  52H    basis set group =>   2
Atom  53C    basis set group =>   1
Atom  54H    basis set group =>   2
Atom  55H    basis set group =>   2
Atom  56C    basis set group =>   1
Atom  57H    basis set group =>   2
Atom  58C    basis set group =>   1
Atom  59H    basis set group =>   2
Atom  60H    basis set group =>   2
Atom  61C    basis set group =>   1
Atom  62H    basis set group =>   2
Atom  63H    basis set group =>   2
Atom  64C    basis set group =>   1
Atom  65C    basis set group =>   1
Atom  66H    basis set group =>   2
Atom  67C    basis set group =>   1
Atom  68H    basis set group =>   2
Atom  69C    basis set group =>   1
Atom  70C    basis set group =>   1
Atom  71H    basis set group =>   2
Atom  72C    basis set group =>   1
Atom  73H    basis set group =>   2
Atom  74C    basis set group =>   1
Atom  75H    basis set group =>   2
Atom  76C    basis set group =>   1
Atom  77H    basis set group =>   2
Atom  78C    basis set group =>   1
Atom  79C    basis set group =>   1
Atom  80H    basis set group =>   2
Atom  81H    basis set group =>   2
Atom  82C    basis set group =>   1
Atom  83H    basis set group =>   2
Atom  84C    basis set group =>   1
Atom  85H    basis set group =>   2
Atom  86H    basis set group =>   2
Atom  87C    basis set group =>   1
Atom  88H    basis set group =>   2
Atom  89C    basis set group =>   1
Atom  90H    basis set group =>   2
Atom  91H    basis set group =>   2
Atom  92C    basis set group =>   1
Atom  93H    basis set group =>   2
Atom  94H    basis set group =>   2
Atom  95C    basis set group =>   1
Atom  96H    basis set group =>   2
Atom  97C    basis set group =>   1
Atom  98H    basis set group =>   2
Atom  99H    basis set group =>   2
Atom 100C    basis set group =>   1
Atom 101H    basis set group =>   2
Atom 102H    basis set group =>   2
Atom 103C    basis set group =>   1
Atom 104C    basis set group =>   1
Atom 105H    basis set group =>   2
Atom 106H    basis set group =>   2
Atom 107C    basis set group =>   1
Atom 108H    basis set group =>   2
Atom 109C    basis set group =>   1
Atom 110H    basis set group =>   2
Atom 111H    basis set group =>   2
Atom 112C    basis set group =>   1
Atom 113H    basis set group =>   2
Atom 114C    basis set group =>   1
Atom 115H    basis set group =>   2
Atom 116H    basis set group =>   2
Atom 117C    basis set group =>   1
Atom 118H    basis set group =>   2
Atom 119H    basis set group =>   2
Atom 120C    basis set group =>   1
Atom 121H    basis set group =>   2
Atom 122C    basis set group =>   1
Atom 123H    basis set group =>   2
Atom 124H    basis set group =>   2
Atom 125C    basis set group =>   1
Atom 126H    basis set group =>   2
Atom 127H    basis set group =>   2


           ************************************************************
           *        Program running with 16 parallel MPI-processes    *
           *              working on a common directory               *
           ************************************************************
------------------------------------------------------------------------------
                           ORCA GTO INTEGRAL CALCULATION
                           -- RI-GTO INTEGRALS CHOSEN --
------------------------------------------------------------------------------
------------------------------------------------------------------------------
                   ___                                                        
                  /   \      - P O W E R E D   B Y -                         
                 /     \                                                     
                 |  |  |   _    _      __       _____    __    __             
                 |  |  |  | |  | |    /  \     |  _  \  |  |  /  |          
                  \  \/   | |  | |   /    \    | | | |  |  | /  /          
                 / \  \   | |__| |  /  /\  \   | |_| |  |  |/  /          
                |  |  |   |  __  | /  /__\  \  |    /   |      \           
                |  |  |   | |  | | |   __   |  |    \   |  |\   \          
                \     /   | |  | | |  |  |  |  | |\  \  |  | \   \       
                 \___/    |_|  |_| |__|  |__|  |_| \__\ |__|  \__/        
                                                                              
                      - O R C A' S   B I G   F R I E N D -                    
                                      &                                       
                       - I N T E G R A L  F E E D E R -                       
                                                                              
 v1 FN, 2020, v2 2021                                                         
------------------------------------------------------------------------------


----------------------
SHARK INTEGRAL PACKAGE
----------------------

Number of atoms                             ...    128
Number of basis functions                   ...   1776
Number of shells                            ...    848
Maximum angular momentum                    ...      2
Integral batch strategy                     ... SHARK/LIBINT Hybrid
RI-J (if used) integral strategy            ... SPLIT-RIJ (Revised 2003 algorithm where possible)
Printlevel                                  ...      1
Contraction scheme used                     ... SEGMENTED contraction
Prescreening option                         ... SCHWARTZ
   Thresh                                   ... 1.000e-12
   Tcut                                     ... 1.000e-14
   Tpresel                                  ... 1.000e-14 
Coulomb Range Separation                    ... NOT USED
Exchange Range Separation                   ... NOT USED
Multipole approximations                    ... NOT USED
Finite Nucleus Model                        ... NOT USED
CABS basis                                  ... NOT available
Auxiliary Coulomb fitting basis             ... AVAILABLE
   # of basis functions in Aux-J            ...   3536
   # of shells in Aux-J                     ...   1200
   Maximum angular momentum in Aux-J        ...      4
Auxiliary J/K fitting basis                 ... NOT available
Auxiliary Correlation fitting basis         ... AVAILABLE
   # of basis functions in Aux-C            ...   5336
   # of shells in Aux-C                     ...   1736
   Maximum angular momentum in Aux-C        ...      4
Auxiliary 'external' fitting basis          ... NOT available

Calculating pre-screening integrals         ... done (  0.1 sec) Dimension = 848
Organizing shell pair data                  ... done (  3.1 sec)
Shell pair information
Total number of shell pairs                 ...    359976
Shell pairs after pre-screening             ...    193855
Total number of primitive shell pairs       ...   1121204
Primitive shell pairs kept                  ...    373014
          la=0 lb=0:  65514 shell pairs
          la=1 lb=0:  66586 shell pairs
          la=1 lb=1:  16994 shell pairs
          la=2 lb=0:  27754 shell pairs
          la=2 lb=1:  14096 shell pairs
          la=2 lb=2:   2911 shell pairs

Calculating one electron integrals          ... done (  0.3 sec)
Calculating RI/J V-Matrix + Cholesky decomp.... done (  0.9 sec)
Calculating RI/C V-Matrix + Cholesky decomp.... done (  2.2 sec)
Calculating Nuclear repulsion               ... done (  0.0 sec) ENN=   8179.497007733027 Eh

-------------------
DFT GRID GENERATION
-------------------

General Integration Accuracy     IntAcc      ... 4.388
Radial Grid Type                 RadialGrid  ... OptM3 with GC (2021)
Angular Grid (max. ang.)         AngularGrid ... 4 (Lebedev-302)
Angular grid pruning method      GridPruning ... 4 (adaptive)
Weight generation scheme         WeightScheme... mBecke (2022)
Basis function cutoff            BFCut       ... 1.0000e-12
Integration weight cutoff        WCut        ... 1.0000e-14
Partially contracted basis set               ... off
Rotationally invariant grid construction     ... off
Angular grids for H and He will be reduced by one unit

Total number of grid points                  ...   549780
Total number of batches                      ...     8655
Average number of points per batch           ...       63
Average number of grid points per atom       ...     4295

--------------------
COSX GRID GENERATION
--------------------

GRIDX 1
-------
General Integration Accuracy     IntAcc      ... 3.816
Radial Grid Type                 RadialGrid  ... OptM3 with GC (2021)
Angular Grid (max. ang.)         AngularGrid ... 1 (Lebedev-50)
Angular grid pruning method      GridPruning ... 4 (adaptive)
Weight generation scheme         WeightScheme... mBecke (2022)
Basis function cutoff            BFCut       ... 1.0000e-12
Integration weight cutoff        WCut        ... 1.0000e-14
Partially contracted basis set               ... on
Rotationally invariant grid construction     ... off
Angular grids for H and He will NOT be reduced by one unit

Total number of grid points                  ...    79955
Total number of batches                      ...      696
Average number of points per batch           ...      114
Average number of grid points per atom       ...      625
UseSFitting                                  ... on

GRIDX 2
-------
General Integration Accuracy     IntAcc      ... 4.020
Radial Grid Type                 RadialGrid  ... OptM3 with GC (2021)
Angular Grid (max. ang.)         AngularGrid ... 2 (Lebedev-110)
Angular grid pruning method      GridPruning ... 4 (adaptive)
Weight generation scheme         WeightScheme... mBecke (2022)
Basis function cutoff            BFCut       ... 1.0000e-12
Integration weight cutoff        WCut        ... 1.0000e-14
Partially contracted basis set               ... on
Rotationally invariant grid construction     ... off
Angular grids for H and He will NOT be reduced by one unit

Total number of grid points                  ...   192194
Total number of batches                      ...     1578
Average number of points per batch           ...      121
Average number of grid points per atom       ...     1502
UseSFitting                                  ... on

GRIDX 3
-------
General Integration Accuracy     IntAcc      ... 4.338
Radial Grid Type                 RadialGrid  ... OptM3 with GC (2021)
Angular Grid (max. ang.)         AngularGrid ... 3 (Lebedev-194)
Angular grid pruning method      GridPruning ... 4 (adaptive)
Weight generation scheme         WeightScheme... mBecke (2022)
Basis function cutoff            BFCut       ... 1.0000e-12
Integration weight cutoff        WCut        ... 1.0000e-14
Partially contracted basis set               ... on
Rotationally invariant grid construction     ... off
Angular grids for H and He will NOT be reduced by one unit

Total number of grid points                  ...   407143
Total number of batches                      ...     3245
Average number of points per batch           ...      125
Average number of grid points per atom       ...     3181
UseSFitting                                  ... on
Initializing property integral containers    ... done (  0.0 sec)

SHARK setup successfully completed in  21.1 seconds

Maximum memory used throughout the entire STARTUP-calculation: 427.4 MB


           ************************************************************
           *        Program running with 16 parallel MPI-processes    *
           *              working on a common directory               *
           ************************************************************

------------------------------------------------------------------------------
                         ORCA PROPERTY INTEGRAL CALCULATIONS
------------------------------------------------------------------------------

GBWName                                   ... 1-6.gbw
Number of atoms                           ...    128
Number of basis functions                 ...   1776
Max core memory                           ...   8000 MB

Dipole integrals                          ... YES
Quadrupole integrals                      ...  NO
Linear Momentum integrals                 ...  NO
Angular Momentum integrals                ...  NO
Higher Moments length integrals           ...  NO
Higher Moments velocity integrals         ...  NO
Kinetic energy integrals                  ...  NO
GIAO Right Hand Sides                     ...  NO
GIAO dipole derivative integrals          ...  NO
SOC integrals                             ...  NO
EPR diamagnetic integrals (GIAO)          ...  NO
EPR gauge integrals                       ...  NO
Field gradient integrals                  ...  NO (   0 nuclei)
Spin-dipole/Fermi contact integrals       ...  NO (   0 nuclei)
Nucleus-orbit integrals                   ...  NO (   0 nuclei)
Geometric perturbations                   ...  NO ( 128 nuclei)
Electric origin: ( 13.7594,  9.3891, 13.3042) 
Magnetic origin: (  0.0000,  0.0000,  0.0000) 

Calculating integrals                     ... Electric Dipole (Length)     done (  0.3 sec)

Property integrals calculated in   0.7 sec

Maximum memory used throughout the entire PROPINT-calculation: 683.5 MB


           ************************************************************
           *        Program running with 16 parallel MPI-processes    *
           *              working on a common directory               *
           ************************************************************
-------------------------------------------------------------------------------
                                 ORCA GUESS
                   Start orbitals & Density for SCF / CASSCF
-------------------------------------------------------------------------------

------------
SCF SETTINGS
------------
Hamiltonian:
 Ab initio Hamiltonian  Method          .... Hartree-Fock(GTOs)
 RI-approximation to the Coulomb term is turned on
   Number of AuxJ basis functions       .... 3536
   RIJ-COSX (HFX calculated with COS-X)).... on


General Settings:
[...]
106 H      0.9020     1.0000     0.0980     0.9763     0.9763     0.0000
107 C      5.6669     6.0000     0.3331     3.4496     3.4491     0.0004
108 H      0.8964     1.0000     0.1036     0.9128     0.9127     0.0000
109 C      6.4737     6.0000    -0.4737     4.1813     4.1812     0.0001
110 H      0.9064     1.0000     0.0936     0.9523     0.9523     0.0000
111 H      0.9015     1.0000     0.0985     0.9420     0.9417     0.0003
112 C      5.6178     6.0000     0.3822     3.4789     3.4790    -0.0000
113 H      0.9093     1.0000     0.0907     0.9230     0.9230     0.0000
114 C      6.4466     6.0000    -0.4466     4.3022     4.3022     0.0000
115 H      0.9138     1.0000     0.0862     0.9723     0.9723     0.0000
116 H      0.9174     1.0000     0.0826     0.9700     0.9700     0.0000
117 C      6.4436     6.0000    -0.4436     4.2400     4.2400    -0.0000
118 H      0.9155     1.0000     0.0845     0.9604     0.9604     0.0000
119 H      0.9131     1.0000     0.0869     0.9724     0.9724     0.0000
120 C      5.7012     6.0000     0.2988     3.5660     3.5659     0.0000
121 H      0.9033     1.0000     0.0967     0.9175     0.9175    -0.0000
122 C      6.3806     6.0000    -0.3806     4.1848     4.1848     0.0000
123 H      0.9277     1.0000     0.0723     0.9688     0.9688     0.0000
124 H      0.9074     1.0000     0.0926     0.9541     0.9541     0.0000
125 C      6.4299     6.0000    -0.4299     4.1823     4.1824    -0.0000
126 H      0.9230     1.0000     0.0770     0.9645     0.9645     0.0000
127 H      0.9093     1.0000     0.0907     0.9548     0.9548     0.0000

  Mayer bond orders larger than 0.100000
B(  0-C ,  1-C ) :   1.9384 B(  0-C , 12-C ) :   1.0114 B(  0-C , 14-C ) :   0.8468 
B(  1-C ,  2-H ) :   0.9528 B(  1-C ,  3-C ) :   0.8640 B(  3-C ,  4-H ) :   1.0046 
B(  3-C ,  5-C ) :   1.9075 B(  5-C ,  6-C ) :   1.0688 B(  5-C , 39-C ) :   0.8191 
B(  6-C ,  7-H ) :   0.9818 B(  6-C ,  8-C ) :   1.9948 B(  8-C ,  9-H ) :   0.9909 
B(  8-C , 10-C ) :   0.9035 B( 10-C , 11-H ) :   0.9891 B( 10-C , 12-C ) :   1.9965 
B( 12-C , 13-H ) :   1.0002 B( 14-C , 15-C ) :   0.8631 B( 14-C , 25-C ) :   0.9962 
B( 14-C , 28-C ) :   0.9008 B( 15-C , 16-H ) :   0.9908 B( 15-C , 17-H ) :   0.9944 
B( 15-C , 18-C ) :   0.9048 B( 15-C , 20-C ) :   0.1124 B( 15-C , 25-C ) :   0.1719 
B( 15-C , 33-C ) :   0.1056 B( 18-C , 19-H ) :   0.9752 B( 18-C , 20-C ) :   0.8744 
B( 18-C , 33-C ) :   0.8700 B( 20-C , 21-H ) :   0.9894 B( 20-C , 22-H ) :   0.9988 
B( 20-C , 23-C ) :   0.8668 B( 20-C , 25-C ) :   0.1234 B( 20-C , 33-C ) :   0.1202 
B( 20-C , 36-C ) :   0.1231 B( 23-C , 24-H ) :   0.9712 B( 23-C , 25-C ) :   0.8776 
B( 23-C , 36-C ) :   0.8813 B( 25-C , 26-H ) :   0.9904 B( 25-C , 27-H ) :   0.9815 
B( 25-C , 28-C ) :   0.1336 B( 25-C , 36-C ) :   0.1198 B( 28-C , 29-H ) :   0.9925 
B( 28-C , 30-H ) :   0.9861 B( 28-C , 31-C ) :   0.9302 B( 28-C , 33-C ) :   0.1053 
B( 31-C , 32-H ) :   0.9722 B( 31-C , 33-C ) :   0.8741 B( 31-C , 36-C ) :   0.9166 
B( 33-C , 34-H ) :   0.9968 B( 33-C , 35-H ) :   0.9967 B( 33-C , 36-C ) :   0.1175 
B( 36-C , 37-H ) :   0.9945 B( 36-C , 38-H ) :   0.9975 B( 39-C , 40-C ) :   0.8911 
B( 39-C , 50-C ) :   0.9550 B( 39-C , 53-C ) :   0.8520 B( 40-C , 41-H ) :   0.9930 
B( 40-C , 42-H ) :   0.9913 B( 40-C , 43-C ) :   0.8972 B( 40-C , 45-C ) :   0.1111 
B( 40-C , 50-C ) :   0.1273 B( 40-C , 53-C ) :   0.1308 B( 40-C , 58-C ) :   0.1023 
B( 43-C , 44-H ) :   0.9717 B( 43-C , 45-C ) :   0.8783 B( 43-C , 58-C ) :   0.9204 
B( 45-C , 46-H ) :   0.9979 B( 45-C , 47-H ) :   0.9973 B( 45-C , 48-C ) :   0.8399 
B( 45-C , 50-C ) :   0.1165 B( 45-C , 58-C ) :   0.1144 B( 45-C , 61-C ) :   0.1363 
B( 48-C , 49-H ) :   0.9688 B( 48-C , 50-C ) :   0.8665 B( 48-C , 61-C ) :   0.8379 
B( 50-C , 51-H ) :   0.9945 B( 50-C , 52-H ) :   0.9941 B( 50-C , 53-C ) :   0.1623 
B( 50-C , 61-C ) :   0.1313 B( 53-C , 54-H ) :   0.9879 B( 53-C , 55-H ) :   0.9792 
B( 53-C , 56-C ) :   0.9003 B( 53-C , 58-C ) :   0.1023 B( 53-C , 61-C ) :   0.1292 
B( 56-C , 57-H ) :   0.9533 B( 56-C , 58-C ) :   0.8870 B( 56-C , 61-C ) :   0.8655 
B( 58-C , 59-H ) :   0.9976 B( 58-C , 60-H ) :   0.9975 B( 58-C , 61-C ) :   0.1146 
B( 61-C , 62-H ) :   0.9921 B( 61-C , 63-H ) :   0.9962 B( 64-C , 65-C ) :   1.9664 
B( 64-C , 76-C ) :   1.0550 B( 64-C , 78-C ) :   0.8175 B( 65-C , 66-H ) :   0.9856 
B( 65-C , 67-C ) :   0.8635 B( 67-C , 68-H ) :   0.9915 B( 67-C , 69-C ) :   1.9205 
B( 69-C , 70-C ) :   1.0003 B( 69-C ,103-C ) :   0.8317 B( 70-C , 71-H ) :   1.0004 
B( 70-C , 72-C ) :   1.9886 B( 72-C , 73-H ) :   0.9894 B( 72-C , 74-C ) :   0.9198 
B( 72-C , 76-C ) :   0.1093 B( 74-C , 75-H ) :   0.9341 B( 74-C , 76-C ) :   2.0577 
B( 76-C , 77-H ) :   0.9340 B( 76-C , 78-C ) :  -0.1113 B( 78-C , 79-C ) :   0.8631 
B( 78-C , 89-C ) :   0.9606 B( 78-C , 92-C ) :   0.9038 B( 79-C , 80-H ) :   0.9940 
B( 79-C , 81-H ) :   0.9939 B( 79-C , 82-C ) :   0.8712 B( 79-C , 84-C ) :   0.1181 
B( 79-C , 89-C ) :   0.1354 B( 79-C , 92-C ) :   0.1437 B( 79-C , 97-C ) :   0.1292 
B( 82-C , 83-H ) :   0.9736 B( 82-C , 84-C ) :   0.8563 B( 82-C , 97-C ) :   0.8333 
B( 84-C , 85-H ) :   0.9976 B( 84-C , 86-H ) :   0.9980 B( 84-C , 87-C ) :   0.8726 
B( 84-C , 89-C ) :   0.1142 B( 84-C , 97-C ) :   0.1339 B( 84-C ,100-C ) :   0.1156 
B( 87-C , 88-H ) :   0.9696 B( 87-C , 89-C ) :   0.8968 B( 87-C ,100-C ) :   0.9174 
B( 89-C , 90-H ) :   0.9985 B( 89-C , 91-H ) :   0.9932 B( 89-C , 92-C ) :   0.1275 
B( 89-C ,100-C ) :   0.1008 B( 92-C , 93-H ) :   0.9896 B( 92-C , 94-H ) :   0.9652 
B( 92-C , 95-C ) :   0.9040 B( 92-C , 97-C ) :   0.1279 B( 95-C , 96-H ) :   0.9531 
B( 95-C , 97-C ) :   0.8647 B( 95-C ,100-C ) :   0.8974 B( 97-C , 98-H ) :   0.9917 
B( 97-C , 99-H ) :   0.9956 B( 97-C ,100-C ) :   0.1146 B(100-C ,101-H ) :   0.9963 
B(100-C ,102-H ) :   0.9967 B(103-C ,104-C ) :   0.8963 B(103-C ,114-C ) :   0.9664 
B(103-C ,117-C ) :   0.8923 B(104-C ,105-H ) :   0.9792 B(104-C ,106-H ) :   0.9866 
B(104-C ,107-C ) :   0.8746 B(104-C ,109-C ) :   0.1214 B(104-C ,114-C ) :   0.1624 
B(104-C ,117-C ) :   0.1178 B(104-C ,122-C ) :   0.1118 B(107-C ,108-H ) :   0.9757 
B(107-C ,109-C ) :   0.8681 B(107-C ,122-C ) :   0.8883 B(109-C ,110-H ) :   0.9985 
B(109-C ,111-H ) :   0.9892 B(109-C ,112-C ) :   0.8675 B(109-C ,114-C ) :   0.1107 
B(109-C ,122-C ) :   0.1216 B(109-C ,125-C ) :   0.1202 B(112-C ,113-H ) :   0.9707 
B(112-C ,114-C ) :   0.8952 B(112-C ,125-C ) :   0.8746 B(114-C ,115-H ) :   0.9951 
B(114-C ,116-H ) :   0.9920 B(114-C ,117-C ) :   0.1280 B(114-C ,125-C ) :   0.1070 
B(117-C ,118-H ) :   0.9900 B(117-C ,119-H ) :   0.9919 B(117-C ,120-C ) :   0.9271 
B(120-C ,121-H ) :   0.9718 B(120-C ,122-C ) :   0.9025 B(120-C ,125-C ) :   0.8906 
B(122-C ,123-H ) :   0.9955 B(122-C ,124-H ) :   0.9984 B(122-C ,125-C ) :   0.1182 
B(125-C ,126-H ) :   0.9961 B(125-C ,127-H ) :   0.9967 



--------------------------------------------------------------------------------
                                    TIMINGS
--------------------------------------------------------------------------------


Total execution time                   ...      855.073 sec

Localization of occupied MO's          ...       20.834 sec (  2.4%)
Fock Matrix Formation                  ...      150.590 sec ( 17.6%)
Global overlap, Fock, MKN matrices     ...        4.802 sec (  0.6%)
Differential overlap integrals         ...       13.402 sec (  1.6%)
Organizing maps                        ...        0.401 sec (  0.0%)
RI 3-index integral generations        ...      308.000 sec ( 36.0%)
RI-PNO integral transformation         ...       79.175 sec (  9.3%)
Initial Guess                          ...       91.092 sec ( 10.7%)
DIIS Solver                            ...        0.109 sec (  0.0%)
State Vector Update                    ...        0.017 sec (  0.0%)
Sigma-vector construction              ...        6.181 sec (  0.7%)
  <D|H|D>(0-ext)                       ...        0.212 sec (  3.4% of sigma)
  <D|H|D>(2-ext)                       ...        0.298 sec (  4.8% of sigma)
  <D|H|D>(4-ext)                       ...        0.002 sec (  0.0% of sigma)
  <D|H|D>(4-ext-corr)                  ...        0.023 sec (  0.4% of sigma)
  CCSD doubles correction              ...        0.017 sec (  0.3% of sigma)
  <S|H|S>                              ...        2.629 sec ( 42.5% of sigma)
  <S|H|D>(1-ext)                       ...        0.143 sec (  2.3% of sigma)
  <D|H|S>(1-ext)                       ...        0.002 sec (  0.0% of sigma)
  <S|H|D>(3-ext)                       ...        0.003 sec (  0.0% of sigma)
  CCSD singles correction              ...        0.001 sec (  0.0% of sigma)
  Fock-dressing                        ...        1.221 sec ( 19.8% of sigma)
  Singles amplitudes                   ...        1.063 sec ( 17.2% of sigma)
  (ik|jl)-dressing                     ...        0.215 sec (  3.5% of sigma)
  (ij|ab),(ia|jb)-dressing             ...        0.021 sec (  0.3% of sigma)
  Pair energies                        ...        0.013 sec (  0.2% of sigma)
One-particle density matrix            ...        4.536 sec (  0.5%)
Local Energy Decomposition             ...      164.098 sec ( 19.2% of ALL)


Maximum memory used throughout the entire MDCI-calculation: 4432.7 MB

-------------------------   --------------------
FINAL SINGLE POINT ENERGY     -2162.573445966379
-------------------------   --------------------


                            ***************************************
                            *     ORCA property calculations      *
                            ***************************************

                                    ---------------------
                                    Active property flags
                                    ---------------------
   (+) Dipole Moment


------------------------------------------------------------------------------
                       ORCA ELECTRIC PROPERTIES CALCULATION
------------------------------------------------------------------------------

Dipole Moment Calculation                       ... ON
Quadrupole Moment Calculation                   ... OFF
Polarizability Calculation                      ... OFF
Atomic Dipole Moment Calculation                ... OFF
Atomic Quadrupole Moment Calculation            ... OFF
Atomic Polarizability Calculation               ... OFF
GBWName                                         ... 1-6.gbw
Electron density                                ... 1-6.scfp

The origin for moment calculation is the CENTER OF MASS  = (13.759450,  9.389130 13.304175)

-------------
DIPOLE MOMENT
-------------
                                X             Y             Z
Electronic contribution:     -3.40766       1.95056       0.03046
Nuclear contribution   :      3.30110      -1.90643      -0.05962
                        -----------------------------------------
Total Dipole Moment    :     -0.10657       0.04413      -0.02916
                        -----------------------------------------
Magnitude (a.u.)       :      0.11897
Magnitude (Debye)      :      0.30240



--------------------
Rotational spectrum 
--------------------
 
Rotational constants in cm-1:     0.002116     0.001095     0.000782 
Rotational constants in MHz :    63.423842    32.827539    23.445730 

 Dipole components along the rotational axes: 
x,y,z [a.u.] :    -0.055314    -0.048679     0.093405 
x,y,z [Debye]:    -0.140597    -0.123732     0.237417 

 

                           *** MDCI DENSITY ***

------------------------------------------------------------------------------
                       ORCA ELECTRIC PROPERTIES CALCULATION
------------------------------------------------------------------------------

Dipole Moment Calculation                       ... ON
Quadrupole Moment Calculation                   ... OFF
Polarizability Calculation                      ... OFF
Atomic Dipole Moment Calculation                ... OFF
Atomic Quadrupole Moment Calculation            ... OFF
Atomic Polarizability Calculation               ... OFF
GBWName                                         ... 1-6.gbw
Electron density                                ... 1-6.mdcip

The origin for moment calculation is the CENTER OF MASS  = (13.759450,  9.389130 13.304175)

-------------
DIPOLE MOMENT
-------------
                                X             Y             Z
Electronic contribution:     -3.40631       1.94975       0.02977
Nuclear contribution   :      3.30110      -1.90643      -0.05962
                        -----------------------------------------
Total Dipole Moment    :     -0.10521       0.04332      -0.02985
                        -----------------------------------------
Magnitude (a.u.)       :      0.11763
Magnitude (Debye)      :      0.29899



--------------------
Rotational spectrum 
--------------------
 
Rotational constants in cm-1:     0.002116     0.001095     0.000782 
Rotational constants in MHz :    63.423842    32.827539    23.445730 

 Dipole components along the rotational axes: 
x,y,z [a.u.] :    -0.055525    -0.047468     0.092199 
x,y,z [Debye]:    -0.141134    -0.120654     0.234352 

 

--------------------------------
SUGGESTED CITATIONS FOR THIS RUN
--------------------------------

Below you find a list of papers that are relevant to this ORCA run
We neither can nor want to force you to cite these paper, but we appreciate if you do
You receive ORCA, which is the product of a lot of hard work by many enthusiastic individuals, for free
The only thing we kindly ask in return is that you cite our papers,
We deeply appreciate it, if you show your appreciation for ORCA by not just citing the generic ORCA reference.

Please note that relegating all ORCA citations to the supporting information does *not* help us.
SI sections are not indexed - citations you put there will not count into any citation statistics
But we need these citations in order to attract the funding resources that allow us to do what we are doing

Therefore, if you are a happy ORCA user, please consider citing a few of the papers listed below in the main body of your paper

In addition to the list printed below, the program has created the file 1-6.bibtex that contains the list in bibtex format
You can import this file easily into all common literature databanks and citation aid programs


List of essential papers. We consider these as the minimum necessary citations

  1. Neese,F.
     Software update: the ORCA program system, version 5.0
     WIRES Comput. Molec. Sci., 2022 12(1)e1606
     doi.org/10.1002/wcms.1606

List of papers to cite with high priority. The work reported in these papers was absolutely
necessary for this run to complete.
Our perspective: the developers of density functionals and basis sets usually get cited in chemistry papers
Good! But without the algorithms to do something with them, the functionals or basis sets would not do anything.
Hence, in our opinion, the algorithm design and method developments papers are equally worthy of getting cited

  1. Neese,F.
     An improvement of the resolution of the identity approximation for the formation of the Coulomb matrix
     J. Comp. Chem., 2003 24(14)1740-1747
     doi.org/10.1002/jcc.10318
  2. Neese,F.; Wennmohs,F.; Hansen,A.; Becker,U.
     Efficient, approximate and parallel Hartree-Fock and hybrid DFT calculations. A 'chain-of-spheres' algorithm for the Hartree-Fock exchange
     Chem. Phys., 2009 356(1-3)98-109
     doi.org/10.1016/j.chemphys.2008.10.036
  3. Neese,F.; Hansen,A.; Liakos,D.G.
     Efficient and accurate approximations to the local coupled cluster singles doubles method using a truncated pair natural orbital basis
     J. Chem. Phys., 2009 131 064103
     doi.org/10.1063/1.3173827
  4. Neese,F.; Wennmohs,F.; Hansen,A.
     Efficient and accurate local approximations to coupled-electron pair approaches: An attempt to revive the pair natural orbital method
     J. Chem. Phys., 2009 130 114108
     doi.org/10.1063/1.3086717
  5. Riplinger,C.; Neese,F.
     An efficient and near linear scaling pair natural orbital based local coupled cluster method
     J. Chem. Phys., 2013 138(3)Art. No. 034106
     doi.org/10.1063/1.4773581
  6. Datta,D.; Kossmann,S.; Neese,F.
     Analytic energy derivatives for the calculation of the first-order molecular properties using the domain-based local pair-natural orbital coupled-cluster theory
     J. Chem. Phys., 2016 145 
     doi.org/10.1063/1.4962369
  7. Riplinger,C.; Pinski,P.; Becker,U.; Valeev,E.F.; Neese,F.
     Sparse maps-A systematic infrastructure for reduced-scaling electronic structure methods. II. Linear scaling domain based pair natural orbital coupled cluster theory
     J. Chem. Phys., 2016 144 
     doi.org/10.1063/1.4939030
  8. Schneider,W.B.; Bistoni,G.; Sparta,M.; Saitow,M.; Riplinger,C.; Auer,A.A.; Neese,F.
     Decomposition of Intermolecular Interaction Energies within the Local Pair Natural Orbital Coupled Cluster Framework
     J. Theo. Comp. Chem., 2016 12 4778-4792
     doi.org/10.1021/acs.jctc.6b00523
  9. Bistoni,G.; Riplinger,C.; Minenkov,Y.; Cavallo,L.; Auer,A.A.; Neese,F.
     Treating Subvalence Correlation Effects in Domain Based Pair Natural Orbital Coupled Cluster Calculations: An Out-of-the-Box Approach
     J. Theo. Comp. Chem., 2017 13 3220-3227
     doi.org/10.1021/acs.jctc.7b00352
 10. Helmich-Paris,B.; de Souza,B.; Neese,F.; Izsk,R.
     An improved chain of spheres for exchange algorithm
     J. Chem. Phys., 2021 155 104109
     doi.org/doi: 10.1063/5.0058766.
 11. Neese,F.
     The SHARK Integral Generation and Digestion System
     J. Comp. Chem., 2022  1-16
     doi.org/10.1002/jcc.26942

List of suggested additional citations. These are papers that are important in the 'surrounding' of 
of this run, or papers that preceded the highly important papers. If you like your results we are grateful for a citation.

  1. Izsak,R.; Neese,F.
     An overlap fitted chain of spheres exchange method
     J. Chem. Phys., 2011 135 144105
     doi.org/10.1063/1.3646921
  2. Izsak,R.; Hansen,A.; Neese,F.
     The resolution of identity and chain of spheres approximations for the LPNO-CCSD singles Fock term
     Molec. Phys., 2012 110 2413-2417
     doi.org/10.1080/00268976.2012.687466
  3. Neese,F.
     The ORCA program system
     WIRES Comput. Molec. Sci., 2012 2(1)73-78
     doi.org/10.1002/wcms.81
  4. Izsak,R.; Neese,F.; Klopper,W.
     Robust fitting techniques in the chain of spheres approximation to the Fock exchange: The role of the complementary space
     J. Chem. Phys., 2013 139 
     doi.org/10.1063/1.4819264
  5. Neese,F.
     Software update: the ORCA program system, version 4.0
     WIRES Comput. Molec. Sci., 2018 8(1)1-6
     doi.org/10.1002/wcms.1327
  6. Neese,F.; Wennmohs,F.; Becker,U.; Riplinger,C.
     The ORCA quantum chemistry program package
     J. Chem. Phys., 2020 152 Art. No. L224108
     doi.org/10.1063/5.0004608
  7. Bistoni,G.
     Finding chemical concepts in the Hilbert space: Coupled cluster analyses of noncovalent interactions
     WIRES Comput. Molec. Sci., 2020 10(3)e1442
     doi.org/10.1002/wcms.1442

List of optional additional citations

  1. Neese,F.
     Approximate second-order SCF convergence for spin unrestricted wavefunctions
     Chem. Phys. Lett., 2000 325(1-3)93-98
     doi.org/10.1016/s0009-2614(00)00662-x

Timings for individual modules:

Sum of individual times          ...     1525.241 sec (=  25.421 min)
GTO integral calculation         ...       21.982 sec (=   0.366 min)   1.4 %
SCF iterations                   ...      630.889 sec (=  10.515 min)  41.4 %
Property integrals               ...       12.743 sec (=   0.212 min)   0.8 %
MDCI module                      ...      859.627 sec (=  14.327 min)  56.4 %
                             ****ORCA TERMINATED NORMALLY****
TOTAL RUN TIME: 0 days 0 hours 25 minutes 27 seconds 580 msec