                                 *****************
                                 * O   R   C   A *
                                 *****************

                                            #,                                       
                                            ###                                      
                                            ####                                     
                                            #####                                    
                                            ######                                   
                                           ########,                                 
                                     ,,################,,,,,                         
                               ,,#################################,,                 
                          ,,##########################################,,             
                       ,#########################################, ''#####,          
                    ,#############################################,,   '####,        
                  ,##################################################,,,,####,       
                ,###########''''           ''''###############################       
              ,#####''   ,,,,##########,,,,          '''####'''          '####       
            ,##' ,,,,###########################,,,                        '##       
           ' ,,###''''                  '''############,,,                           
         ,,##''                                '''############,,,,        ,,,,,,###''
      ,#''                                            '''#######################'''  
     '                                                          ''''####''''         
             ,#######,   #######,   ,#######,      ##                                
            ,#'     '#,  ##    ##  ,#'     '#,    #''#        ######   ,####,        
            ##       ##  ##   ,#'  ##            #'  '#       #        #'  '#        
            ##       ##  #######   ##           ,######,      #####,   #    #        
            '#,     ,#'  ##    ##  '#,     ,#' ,#      #,         ##   #,  ,#        
             '#######'   ##     ##  '#######'  #'      '#     #####' # '####'        



                  #######################################################
                  #                        -***-                        #
                  #          Department of theory and spectroscopy      #
                  #    Directorship and core code : Frank Neese         #
                  #        Max Planck Institute fuer Kohlenforschung    #
                  #                Kaiser Wilhelm Platz 1               #
                  #                 D-45470 Muelheim/Ruhr               #
                  #                      Germany                        #
                  #                                                     #
                  #                  All rights reserved                #
                  #                        -***-                        #
                  #######################################################


                         Program Version 5.0  -  CURRENT   -
                                (GIT: $76ccee9ca$)
                ($2022-06-14 15:14:42 +0200 $)

                  !                     WARNING:                         !
                  !         This is a DEVELOPMENT version                !

                         (BUILD: $Mi 15. Jun 00:07:41 CEST 2022$)


 With contributions from (in alphabetic order):
   Daniel Aravena         : Magnetic Suceptibility
   Michael Atanasov       : Ab Initio Ligand Field Theory (pilot matlab implementation)
   Alexander A. Auer      : GIAO ZORA, VPT2 properties, NMR spectrum
   Ute Becker             : Parallelization
   Giovanni Bistoni       : ED, misc. LED, open-shell LED, HFLD
   Martin Brehm           : Molecular dynamics
   Dmytro Bykov           : SCF Hessian
   Vijay G. Chilkuri      : MRCI spin determinant printing, contributions to CSF-ICE
   Dipayan Datta          : RHF DLPNO-CCSD density
   Achintya Kumar Dutta   : EOM-CC, STEOM-CC
   Dmitry Ganyushin       : Spin-Orbit,Spin-Spin,Magnetic field MRCI
   Miquel Garcia          : C-PCM and meta-GGA Hessian, CC/C-PCM, Gaussian charge scheme
   Yang Guo               : DLPNO-NEVPT2, F12-NEVPT2, CIM, IAO-localization
   Andreas Hansen         : Spin unrestricted coupled pair/coupled cluster methods
   Benjamin Helmich-Paris : MC-RPA, TRAH-SCF, COSX integrals
   Lee Huntington         : MR-EOM, pCC
   Robert Izsak           : Overlap fitted RIJCOSX, COSX-SCS-MP3, EOM
   Marcus Kettner         : VPT2
   Christian Kollmar      : KDIIS, OOCD, Brueckner-CCSD(T), CCSD density, CASPT2, CASPT2-K, improved NEVPT2
   Simone Kossmann        : Meta GGA functionals, TD-DFT gradient, OOMP2, MP2 Hessian
   Martin Krupicka        : Initial AUTO-CI
   Lucas Lang             : DCDCAS
   Marvin Lechner         : AUTO-CI (C++ implementation), FIC-MRCC
   Dagmar Lenk            : GEPOL surface, SMD
   Dimitrios Liakos       : Extrapolation schemes; Compound Job, initial MDCI parallelization
   Dimitrios Manganas     : Further ROCIS development; embedding schemes
   Dimitrios Pantazis     : SARC Basis sets
   Anastasios Papadopoulos: AUTO-CI, single reference methods and gradients
   Taras Petrenko         : DFT Hessian,TD-DFT gradient, ASA, ECA, R-Raman, ABS, FL, XAS/XES, NRVS
   Peter Pinski           : DLPNO-MP2, DLPNO-MP2 Gradient
   Christoph Reimann      : Effective Core Potentials
   Marius Retegan         : Local ZFS, SOC
   Christoph Riplinger    : Optimizer, TS searches, QM/MM, DLPNO-CCSD(T), (RO)-DLPNO pert. Triples
   Tobias Risthaus        : Range-separated hybrids, TD-DFT gradient, RPA, STAB
   Michael Roemelt        : Original ROCIS implementation
   Masaaki Saitow         : Open-shell DLPNO-CCSD energy and density
   Barbara Sandhoefer     : DKH picture change effects
   Avijit Sen             : IP-ROCIS
   Kantharuban Sivalingam : CASSCF convergence, NEVPT2, FIC-MRCI
   Bernardo de Souza      : ESD, SOC TD-DFT
   Georgi Stoychev        : AutoAux, RI-MP2 NMR, DLPNO-MP2 response
   Willem Van den Heuvel  : Paramagnetic NMR
   Boris Wezisla          : Elementary symmetry handling
   Frank Wennmohs         : Technical directorship


 We gratefully acknowledge several colleagues who have allowed us to
 interface, adapt or use parts of their codes:
   Stefan Grimme, W. Hujo, H. Kruse, P. Pracht,  : VdW corrections, initial TS optimization,
                  C. Bannwarth, S. Ehlert          DFT functionals, gCP, sTDA/sTD-DF
   Ed Valeev, F. Pavosevic, A. Kumar             : LibInt (2-el integral package), F12 methods
   Garnet Chan, S. Sharma, J. Yang, R. Olivares  : DMRG
   Ulf Ekstrom                                   : XCFun DFT Library
   Mihaly Kallay                                 : mrcc  (arbitrary order and MRCC methods)
   Jiri Pittner, Ondrej Demel                    : Mk-CCSD
   Frank Weinhold                                : gennbo (NPA and NBO analysis)
   Christopher J. Cramer and Donald G. Truhlar   : smd solvation model
   Lars Goerigk                                  : TD-DFT with DH, B97 family of functionals
   V. Asgeirsson, H. Jonsson                     : NEB implementation
   FAccTs GmbH                                   : IRC, NEB, NEB-TS, DLPNO-Multilevel, CI-OPT
                                                   MM, QMMM, 2- and 3-layer-ONIOM, Crystal-QMMM,
                                                   LR-CPCM, SF, NACMEs, symmetry and pop. for TD-DFT,
                                                   nearIR, NL-DFT gradient (VV10), updates on ESD,
                                                   ML-optimized integration grids
   S Lehtola, MJT Oliveira, MAL Marques          : LibXC Library
   Liviu Ungur et al                             : ANISO software


 Your calculation uses the libint2 library for the computation of 2-el integrals
 For citations please refer to: http://libint.valeyev.net

 Your ORCA version has been built with support for libXC version: 5.2.2
 For citations please refer to: https://tddft.org/programs/libxc/

 This ORCA versions uses:
   CBLAS   interface :  Fast vector & matrix operations
   LAPACKE interface :  Fast linear algebra routines
   SCALAPACK package :  Parallel linear algebra routines
   Shared memory     :  Shared parallel matrices


================================================================================

----- Orbital basis set information -----
Your calculation utilizes the basis: aug-cc-pVTZ 
    H, B-Ne : Obtained from the ccRepo (grant-hill.group.shef.ac.uk/ccrepo) Feb. 2017
              R. A. Kendall, T. H. Dunning, Jr., R. J. Harrison, J. Chem. Phys. 96, 6796 (1992)
         He : Obtained from the ccRepo (grant-hill.group.shef.ac.uk/ccrepo) Feb. 2017
              D. E. Woon, T. H. Dunning, Jr., J. Chem. Phys. 100, 2975 (1994)
  Li-Be, Na : Obtained from the ccRepo (grant-hill.group.shef.ac.uk/ccrepo) Feb. 2017
              B. P. Prascher, D. E. Woon, K. A. Peterson, T. H. Dunning, Jr., A. K. Wilson, Theor. Chem. Acc. 128, 69 (2011)
         Mg : Obtained from the Peterson Research Group Website (tyr0.chem.wsu.edu/~kipeters) Feb. 2017
              B. P. Prascher, D. E. Woon, K. A. Peterson, T. H. Dunning, Jr., A. K. Wilson, Theor. Chem. Acc. 128, 69 (2011)
      Al-Ar : Obtained from the ccRepo (grant-hill.group.shef.ac.uk/ccrepo) Feb. 2017
              D. E. Woon, T. H. Dunning, Jr., J. Chem. Phys. 98, 1358 (1993)
      Sc-Zn : Obtained from the ccRepo (grant-hill.group.shef.ac.uk/ccrepo) Feb. 2017
              N. B. Balabanov, K. A. Peterson, J. Chem. Phys. 123, 064107 (2005)
              N. B. Balabanov, K. A. Peterson, J. Chem. Phys. 125, 074110 (2006)
      Ga-Kr : Obtained from the ccRepo (grant-hill.group.shef.ac.uk/ccrepo) Feb. 2017
              A. K. Wilson, D. E. Woon, K. A. Peterson, T. H. Dunning, Jr., J. Chem. Phys. 110, 7667 (1999)
     Ag, Au : Obtained from the Peterson Research Group Website (tyr0.chem.wsu.edu/~kipeters) Feb. 2017
              K. A. Peterson, C. Puzzarini, Theor. Chem. Acc. 114, 283 (2005)

----- AuxJ basis set information -----
----- AuxC basis set information -----
================================================================================
                                        WARNINGS
                       Please study these warnings very carefully!
================================================================================


WARNING: Post HF methods need fully converged wavefunctions
  ===> : Setting SCFConvForced true
         You can overwrite this default with %scf ConvForced false 


WARNING: MDCI localization with Augmented Hessian Foster-Boys
  ===> : Switching off randomization!

INFO   : the flag for use of the SHARK integral package has been found!

================================================================================
                                       INPUT FILE
================================================================================
NAME = frag5.inp
|  1> ! DLPNO-CCSD(T1) aug-cc-pVTZ DEFGRID3 RIJCOSX def2/J aug-cc-pVQZ/C verytightscf TightPNO 
|  2> 
|  3> %pal nprocs 4 end
|  4> %maxcore 4000
|  5> %scf maxiter 999 end
|  6> %basis auxj "autoaux" auxc "autoaux" autoauxlmax true end
|  7> %mdci TCutPNO 1e-6 printlevel 3 end
|  8> 
|  9> *xyz 0 1
| 10> O    -0.845377446     1.902266646    -1.724481185
| 11> H    -1.198971324     1.335278306    -1.003913817
| 12> H    -0.953209570     1.388839038    -2.529056860
| 13> *
| 14> 
| 15>                          ****END OF INPUT****
================================================================================

                       ****************************
                       * Single Point Calculation *
                       ****************************

---------------------------------
CARTESIAN COORDINATES (ANGSTROEM)
---------------------------------
  O     -0.845377    1.902267   -1.724481
  H     -1.198971    1.335278   -1.003914
  H     -0.953210    1.388839   -2.529057

----------------------------
CARTESIAN COORDINATES (A.U.)
----------------------------
  NO LB      ZA    FRAG     MASS         X           Y           Z
   0 O     8.0000    0    15.999   -1.597532    3.594763   -3.258797
   1 H     1.0000    0     1.008   -2.265727    2.523310   -1.897122
   2 H     1.0000    0     1.008   -1.801305    2.624525   -4.779225

--------------------------------
INTERNAL COORDINATES (ANGSTROEM)
--------------------------------
 O      0   0   0     0.000000000000     0.00000000     0.00000000
 H      1   0   0     0.982711422586     0.00000000     0.00000000
 H      1   2   0     0.960509079824   105.39089909     0.00000000

---------------------------
INTERNAL COORDINATES (A.U.)
---------------------------
 O      0   0   0     0.000000000000     0.00000000     0.00000000
 H      1   0   0     1.857055457364     0.00000000     0.00000000
 H      1   2   0     1.815099110012   105.39089909     0.00000000

---------------------
BASIS SET INFORMATION
---------------------
There are 2 groups of distinct atoms

 Group   1 Type O   : 19s6p3d2f contracted to 5s4p3d2f pattern {88111/3111/111/11}
 Group   2 Type H   : 6s3p2d contracted to 4s3p2d pattern {3111/111/11}

Atom   0O    basis set group =>   1
Atom   1H    basis set group =>   2
Atom   2H    basis set group =>   2
---------------------------------
AUXILIARY/J BASIS SET INFORMATION
---------------------------------
There are 2 groups of distinct atoms

 Group   1 Type O   : 16s14p13d7f5g3h2i contracted to 16s14p13d7f5g3h2i pattern {1111111111111111/11111111111111/1111111111111/1111111/11111/111/11}
 Group   2 Type H   : 14s6p5d4f3g contracted to 14s6p5d4f3g pattern {11111111111111/111111/11111/1111/111}

Atom   0O    basis set group =>   1
Atom   1H    basis set group =>   2
Atom   2H    basis set group =>   2
---------------------------------
AUXILIARY/C BASIS SET INFORMATION
---------------------------------
There are 2 groups of distinct atoms

 Group   1 Type O   : 16s14p13d7f5g3h2i contracted to 16s14p13d7f5g3h2i pattern {1111111111111111/11111111111111/1111111111111/1111111/11111/111/11}
 Group   2 Type H   : 14s6p5d4f3g contracted to 14s6p5d4f3g pattern {11111111111111/111111/11111/1111/111}

Atom   0O    basis set group =>   1
Atom   1H    basis set group =>   2
Atom   2H    basis set group =>   2


           ************************************************************
           *        Program running with 4 parallel MPI-processes     *
           *              working on a common directory               *
           ************************************************************
------------------------------------------------------------------------------
                           ORCA GTO INTEGRAL CALCULATION
                           -- RI-GTO INTEGRALS CHOSEN --
------------------------------------------------------------------------------
------------------------------------------------------------------------------
                   ___                                                        
                  /   \      - P O W E R E D   B Y -                         
                 /     \                                                     
                 |  |  |   _    _      __       _____    __    __             
                 |  |  |  | |  | |    /  \     |  _  \  |  |  /  |          
                  \  \/   | |  | |   /    \    | | | |  |  | /  /          
                 / \  \   | |__| |  /  /\  \   | |_| |  |  |/  /          
                |  |  |   |  __  | /  /__\  \  |    /   |      \           
                |  |  |   | |  | | |   __   |  |    \   |  |\   \          
                \     /   | |  | | |  |  |  |  | |\  \  |  | \   \       
                 \___/    |_|  |_| |__|  |__|  |_| \__\ |__|  \__/        
                                                                              
                      - O R C A' S   B I G   F R I E N D -                    
                                      &                                       
                       - I N T E G R A L  F E E D E R -                       
                                                                              
 v1 FN, 2020, v2 2021                                                         
------------------------------------------------------------------------------


Reading SHARK input file frag5.SHARKINP.tmp ... ok
Calculating pre-screening integrals         ... done (  0.0 sec) Dimension = 38
Calculating pre-screening integrals (ORCA)  ... done (  0.0 sec) Dimension = 32
Organizing shell pair data                  ... done (  0.0 sec)
Shell pair information
Total number of shell pairs                 ...       741
Shell pairs after pre-screening             ...       741
Total number of primitive shell pairs       ...       999
Primitive shell pairs kept                  ...       982
          la=0 lb=0:    190 shell pairs
          la=1 lb=0:    190 shell pairs
          la=1 lb=1:     55 shell pairs
          la=2 lb=0:    133 shell pairs
          la=2 lb=1:     70 shell pairs
          la=2 lb=2:     28 shell pairs
          la=3 lb=0:     38 shell pairs
          la=3 lb=1:     20 shell pairs
          la=3 lb=2:     14 shell pairs
          la=3 lb=3:      3 shell pairs

Calculating one electron integrals          ... done (  0.0 sec)
Calculating RI/J V-Matrix + Cholesky decomp.... done (  0.1 sec)
Calculating RI/C V-Matrix + Cholesky decomp.... done (  0.0 sec)
Calculating Nuclear repulsion               ... done (  0.0 sec) ENN=      9.057712216140 Eh

SHARK setup successfully completed in   0.3 seconds

Maximum memory used throughout the entire GTOINT-calculation: 25.5 MB


           ************************************************************
           *        Program running with 4 parallel MPI-processes     *
           *              working on a common directory               *
           ************************************************************
-------------------------------------------------------------------------------
                                 ORCA SCF
-------------------------------------------------------------------------------

------------
SCF SETTINGS
------------
Hamiltonian:
 Ab initio Hamiltonian  Method          .... Hartree-Fock(GTOs)
 RI-approximation to the Coulomb term is turned on
   Number of AuxJ basis functions       .... 500
   RIJ-COSX (HFX calculated with COS-X)).... on


General Settings:
 Integral files         IntName         .... frag5
 Hartree-Fock type      HFTyp           .... RHF
 Total Charge           Charge          ....    0
 Multiplicity           Mult            ....    1
 Number of Electrons    NEL             ....   10
 Basis Dimension        Dim             ....   92
 Nuclear Repulsion      ENuc            ....      9.0577122161 Eh

Convergence Acceleration:
 DIIS                   CNVDIIS         .... on
   Start iteration      DIISMaxIt       ....    12
   Startup error        DIISStart       ....  0.200000
   # of expansion vecs  DIISMaxEq       ....     5
   Bias factor          DIISBfac        ....   1.050
   Max. coefficient     DIISMaxC        ....  10.000
 Trust-Rad. Augm. Hess. CNVTRAH         .... auto
   Auto Start mean grad. ratio tolernc. ....  1.125000
   Auto Start start iteration           ....    20
   Auto Start num. interpolation iter.  ....    10
   Max. Number of Micro iterations      ....    24
   Max. Number of Macro iterations      .... Maxiter - #DIIS iter
   Max. Number of back steps            ....     5
   Number of Davidson start vectors     ....     2
   Converg. threshold I  (grad. norm)   ....   2.000e-06
   Converg. threshold II (energy diff.) ....   1.000e-09
   Grad. Scal. Fac. for Micro threshold ....   0.100
   Minimum threshold for Micro iter.    ....   1.000e-02
   NR start threshold (gradient norm)   ....   1.000e-04
   Initial trust radius                 ....   0.400
   Minimum AH scaling param. (alpha)    ....   1.000
   Maximum AH scaling param. (alpha)    .... 1000.000
   Inactive MOs                         .... canonicalized
   Orbital update algorithm             .... Taylor
   White noise on init. David. guess    .... on
   Maximum white noise                  ....   0.010
   Quad. conv. algorithm                .... NR
   Preconditioner                       .... approx. diagonal
 SOSCF                  CNVSOSCF        .... on
   Start iteration      SOSCFMaxIt      ....   150
   Startup grad/error   SOSCFStart      ....  0.003300
 Level Shifting         CNVShift        .... on
   Level shift para.    LevelShift      ....    0.2500
   Turn off err/grad.   ShiftErr        ....    0.0010
 Zerner damping         CNVZerner       .... off
 Static damping         CNVDamp         .... on
   Fraction old density DampFac         ....    0.7000
   Max. Damping (<1)    DampMax         ....    0.9800
   Min. Damping (>=0)   DampMin         ....    0.0000
   Turn off err/grad.   DampErr         ....    0.1000

SCF Procedure:
 Maximum # iterations   MaxIter         ....   999
 SCF integral mode      SCFMode         .... Direct
   Integral package                     .... SHARK and LIBINT hybrid scheme
 Reset frequency        DirectResetFreq ....    20
 Integral Threshold     Thresh          ....  1.000e-12 Eh
 Primitive CutOff       TCut            ....  1.000e-14 Eh

Convergence Tolerance:
 Convergence Check Mode ConvCheckMode   .... Total+1el-Energy
 Convergence forced     ConvForced      .... 1
 Energy Change          TolE            ....  1.000e-09 Eh
 1-El. energy change                    ....  1.000e-06 Eh
 Orbital Gradient       TolG            ....  2.000e-06
 Orbital Rotation angle TolX            ....  2.000e-06
 DIIS Error             TolErr          ....  1.000e-08


Diagonalization of the overlap matrix:
Smallest eigenvalue                        ... 3.914e-04
Time for diagonalization                   ...    0.003 sec
Threshold for overlap eigenvalues          ... 1.000e-08
Number of eigenvalues below threshold      ... 0
Time for construction of square roots      ...    0.003 sec
Total time needed                          ...    0.006 sec

Time for model grid setup =    0.039 sec

------------------------------
INITIAL GUESS: MODEL POTENTIAL
------------------------------
Loading Hartree-Fock densities                     ... done
Calculating cut-offs                               ... done
Initializing the effective Hamiltonian             ... done
Setting up the integral package (SHARK)            ... done
Starting the Coulomb interaction                   ... done (   0.0 sec)
Reading the grid                                   ... done
Mapping shells                                     ... done
Starting the XC term evaluation                    ... done (   0.0 sec)
Transforming the Hamiltonian                       ... done (   0.0 sec)
Diagonalizing the Hamiltonian                      ... done (   0.0 sec)
Back transforming the eigenvectors                 ... done (   0.0 sec)
Now organizing SCF variables                       ... done
                      ------------------
                      INITIAL GUESS DONE (   0.1 sec)
                      ------------------
--------------------
COSX GRID GENERATION
--------------------

GRIDX 1
-------
General Integration Accuracy     IntAcc      ... 4.020
Radial Grid Type                 RadialGrid  ... OptM3 with GC (2021)
Angular Grid (max. ang.)         AngularGrid ... 2 (Lebedev-110)
Angular grid pruning method      GridPruning ... 4 (adaptive)
Weight generation scheme         WeightScheme... Becke
Basis function cutoff            BFCut       ... 1.0000e-12
Integration weight cutoff        WCut        ... 1.0000e-14
Angular grids for H and He will be reduced by one unit
Partially contracted basis set               ... on
Rotationally invariant grid construction     ... off

Total number of grid points                  ...     4170
Total number of batches                      ...       66
Average number of points per batch           ...       63
Average number of grid points per atom       ...     1390
UseSFitting                                  ... on

GRIDX 2
-------
General Integration Accuracy     IntAcc      ... 4.338
Radial Grid Type                 RadialGrid  ... OptM3 with GC (2021)
Angular Grid (max. ang.)         AngularGrid ... 3 (Lebedev-194)
Angular grid pruning method      GridPruning ... 4 (adaptive)
Weight generation scheme         WeightScheme... Becke
Basis function cutoff            BFCut       ... 1.0000e-12
Integration weight cutoff        WCut        ... 1.0000e-14
Angular grids for H and He will be reduced by one unit
Partially contracted basis set               ... on
Rotationally invariant grid construction     ... off

Total number of grid points                  ...     9560
Total number of batches                      ...      151
Average number of points per batch           ...       63
Average number of grid points per atom       ...     3187
UseSFitting                                  ... on

GRIDX 3
-------
General Integration Accuracy     IntAcc      ... 4.871
Radial Grid Type                 RadialGrid  ... OptM3 with GC (2021)
Angular Grid (max. ang.)         AngularGrid ... 4 (Lebedev-302)
Angular grid pruning method      GridPruning ... 4 (adaptive)
Weight generation scheme         WeightScheme... Becke
Basis function cutoff            BFCut       ... 1.0000e-12
Integration weight cutoff        WCut        ... 1.0000e-14
Angular grids for H and He will be reduced by one unit
Partially contracted basis set               ... on
Rotationally invariant grid construction     ... off

Total number of grid points                  ...    18692
Total number of batches                      ...      293
Average number of points per batch           ...       63
Average number of grid points per atom       ...     6231
UseSFitting                                  ... on

Time for X-Grid setup             =    0.141 sec

 re-compute Schwartz prescreening matrix in partially contracted basis (1) ...done (   0.047 sec)
--------------
SCF ITERATIONS
--------------
ITER       Energy         Delta-E        Max-DP      RMS-DP      [F,P]     Damp
               ***  Starting incremental Fock matrix formation  ***
  0    -75.9583005224   0.000000000000 0.02731025  0.00100229  0.3812142 0.7000
  1    -75.9986091572  -0.040308634847 0.01781852  0.00067138  0.2235209 0.7000
                               ***Turning on DIIS***
  2    -76.0194307505  -0.020821593311 0.01147641  0.00036610  0.1194902 0.7000
  3    -76.1746047164  -0.155173965881 0.02955663  0.00066357  0.0849779 0.0000
  4    -76.0346780181   0.139926698310 0.00477946  0.00012585  0.0131943 0.0000
                      *** Initiating the SOSCF procedure ***
                           *** Shutting down DIIS ***
                      *** Re-Reading the Fockian *** 
                      *** Removing any level shift *** 
ITER       Energy         Delta-E        Max-DP      RMS-DP   
  5    -76.0587284369  -0.024050418769 0.00153775  0.00005347
               *** Restarting incremental Fock matrix formation ***
  6    -76.0592600417  -0.000531604845 0.00271751  0.00007065
  7    -76.0592660309  -0.000005989128 0.00097627  0.00002394
  8    -76.0592670258  -0.000000994914 0.00022642  0.00000599
  9    -76.0592672983  -0.000000272566 0.00004841  0.00000163
 10    -76.0592673572  -0.000000058877 0.00001162  0.00000030
 11    -76.0592673571   0.000000000118 0.00000240  0.00000011
 12    -76.0592673549   0.000000002231 0.00000059  0.00000002
                 **** Energy Check signals convergence ****
              ***Rediagonalizing the Fockian in SOSCF/NRSCF***

               *****************************************************
               *                     SUCCESS                       *
               *           SCF CONVERGED AFTER  13 CYCLES          *
               *****************************************************

Old exchange energy                            =     -8.928444583 Eh
New exchange energy                            =     -8.928246562 Eh
Exchange energy change after final integration =      0.000198021 Eh
Total energy after final integration           =    -76.059069333 Eh
Final COS-X integration done in                =     0.264 sec

----------------
TOTAL SCF ENERGY
----------------

Total Energy       :          -76.05906933 Eh           -2069.67250 eV

Components:
Nuclear Repulsion  :            9.05771222 Eh             246.47288 eV
Electronic Energy  :          -85.11678155 Eh           -2316.14538 eV
One Electron Energy:         -122.80120752 Eh           -3341.59074 eV
Two Electron Energy:           37.68442597 Eh            1025.44536 eV
Max COSX asymmetry :            0.00000030 Eh               0.00001 eV

Virial components:
Potential Energy   :         -151.95714911 Eh           -4134.96424 eV
Kinetic Energy     :           75.89807978 Eh            2065.29175 eV
Virial Ratio       :            2.00212113


---------------
SCF CONVERGENCE
---------------

  Last Energy change         ...    3.6826e-10  Tolerance :   1.0000e-09
  Last MAX-Density change    ...    4.4409e-16  Tolerance :   1.0000e-08
  Last RMS-Density change    ...    9.3641e-18  Tolerance :   1.0000e-09

             **** THE GBW FILE WAS UPDATED (frag5.gbw) ****
             **** DENSITY frag5.scfp WAS UPDATED ****
             **** ENERGY FILE WAS UPDATED (frag5.en.tmp) ****
             **** THE GBW FILE WAS UPDATED (frag5.gbw) ****
             **** DENSITY frag5.scfp WAS UPDATED ****
             **** ENERGY FILE WAS UPDATED (frag5.en.tmp) ****
----------------
ORBITAL ENERGIES
----------------

  NO   OCC          E(Eh)            E(eV) 
   0   2.0000     -20.569384      -559.7214 
   1   2.0000      -1.345827       -36.6218 
   2   2.0000      -0.711705       -19.3665 
   3   2.0000      -0.580466       -15.7953 
   4   2.0000      -0.508994       -13.8504 
   5   0.0000       0.029309         0.7975 
   6   0.0000       0.047574         1.2945 
   7   0.0000       0.136006         3.7009 
   8   0.0000       0.159071         4.3285 
   9   0.0000       0.174452         4.7471 
  10   0.0000       0.182801         4.9743 
  11   0.0000       0.226565         6.1652 
  12   0.0000       0.244281         6.6472 
  13   0.0000       0.264833         7.2065 
  14   0.0000       0.300848         8.1865 
  15   0.0000       0.310577         8.4512 
  16   0.0000       0.365208         9.9378 
  17   0.0000       0.434814        11.8319 
  18   0.0000       0.464349        12.6356 
  19   0.0000       0.599406        16.3107 
  20   0.0000       0.656160        17.8550 
  21   0.0000       0.708555        19.2808 
  22   0.0000       0.721861        19.6428 
  23   0.0000       0.732113        19.9218 
  24   0.0000       0.825807        22.4714 
  25   0.0000       0.844148        22.9704 
  26   0.0000       0.893527        24.3141 
  27   0.0000       0.910150        24.7665 
  28   0.0000       0.920346        25.0439 
  29   0.0000       0.921380        25.0720 
  30   0.0000       0.928861        25.2756 
  31   0.0000       0.963081        26.2068 
  32   0.0000       1.016178        27.6516 
  33   0.0000       1.040914        28.3247 
  34   0.0000       1.081498        29.4291 
  35   0.0000       1.107234        30.1294 
  36   0.0000       1.172306        31.9001 
  37   0.0000       1.176162        32.0050 
  38   0.0000       1.264927        34.4204 
  39   0.0000       1.506904        41.0049 
  40   0.0000       1.546049        42.0701 
  41   0.0000       1.580087        42.9964 
  42   0.0000       1.799235        48.9597 
  43   0.0000       1.809121        49.2287 
  44   0.0000       1.972828        53.6834 
  45   0.0000       2.106910        57.3319 
  46   0.0000       2.260087        61.5001 
  47   0.0000       2.313260        62.9470 
  48   0.0000       2.326786        63.3151 
  49   0.0000       2.414365        65.6982 
  50   0.0000       2.416292        65.7507 
  51   0.0000       2.440162        66.4002 
  52   0.0000       2.481672        67.5297 
  53   0.0000       2.688553        73.1593 
  54   0.0000       2.701806        73.5199 
  55   0.0000       2.755963        74.9936 
  56   0.0000       2.825643        76.8897 
  57   0.0000       2.877193        78.2924 
  58   0.0000       3.628425        98.7345 
  59   0.0000       3.736259       101.6688 
  60   0.0000       4.003528       108.9415 
  61   0.0000       4.072302       110.8130 
  62   0.0000       4.169344       113.4536 
  63   0.0000       4.226409       115.0064 
  64   0.0000       4.296073       116.9021 
  65   0.0000       4.372666       118.9863 
  66   0.0000       4.387487       119.3896 
  67   0.0000       4.392896       119.5368 
  68   0.0000       4.500163       122.4557 
  69   0.0000       4.702288       127.9558 
  70   0.0000       4.802634       130.6863 
  71   0.0000       5.106756       138.9619 
  72   0.0000       5.121235       139.3559 
  73   0.0000       5.244701       142.7156 
  74   0.0000       5.286736       143.8594 
  75   0.0000       5.484773       149.2483 
  76   0.0000       5.660187       154.0215 
  77   0.0000       6.148216       167.3015 
  78   0.0000       6.523451       177.5121 
  79   0.0000       6.705834       182.4750 
  80   0.0000       6.862847       186.7476 
  81   0.0000       7.119170       193.7225 
  82   0.0000       7.235564       196.8897 
  83   0.0000       7.290587       198.3869 
  84   0.0000       7.293468       198.4654 
  85   0.0000       7.317363       199.1156 
  86   0.0000       7.355225       200.1458 
  87   0.0000       7.504879       204.2181 
  88   0.0000       7.870416       214.1649 
  89   0.0000       7.904482       215.0919 
  90   0.0000       8.732079       237.6119 
  91   0.0000      15.410677       419.3458 

                    ********************************
                    * MULLIKEN POPULATION ANALYSIS *
                    ********************************

-----------------------
MULLIKEN ATOMIC CHARGES
-----------------------
   0 O :   -0.461167
   1 H :    0.238064
   2 H :    0.223104
Sum of atomic charges:    0.0000000

--------------------------------
MULLIKEN REDUCED ORBITAL CHARGES
--------------------------------
  0 O s       :     3.873417  s :     3.873417
      pz      :     1.225495  p :     4.568003
      px      :     1.802874
      py      :     1.539634
      dz2     :    -0.000624  d :     0.018388
      dxz     :     0.001977
      dyz     :     0.011158
      dx2y2   :     0.002703
      dxy     :     0.003174
      f0      :     0.000070  f :     0.001360
      f+1     :     0.000146
      f-1     :     0.000208
      f+2     :     0.000301
      f-2     :     0.000389
      f+3     :     0.000165
      f-3     :     0.000081
  1 H s       :     0.650012  s :     0.650012
      pz      :     0.024670  p :     0.094507
      px      :     0.042095
      py      :     0.027742
      dz2     :     0.005109  d :     0.017417
      dxz     :     0.004190
      dyz     :     0.002788
      dx2y2   :     0.003279
      dxy     :     0.002050
  2 H s       :     0.658590  s :     0.658590
      pz      :     0.022673  p :     0.099229
      px      :     0.046864
      py      :     0.029692
      dz2     :     0.004174  d :     0.019078
      dxz     :     0.007652
      dyz     :     0.003574
      dx2y2   :     0.001535
      dxy     :     0.002143


                     *******************************
                     * LOEWDIN POPULATION ANALYSIS *
                     *******************************

----------------------
LOEWDIN ATOMIC CHARGES
----------------------
   0 O :    1.000124
   1 H :   -0.476724
   2 H :   -0.523399

-------------------------------
LOEWDIN REDUCED ORBITAL CHARGES
-------------------------------
  0 O s       :     3.019172  s :     3.019172
      pz      :     1.150927  p :     3.895598
      px      :     1.408557
      py      :     1.336114
      dz2     :     0.015816  d :     0.070553
      dxz     :     0.008513
      dyz     :     0.041363
      dx2y2   :     0.001665
      dxy     :     0.003196
      f0      :     0.000391  f :     0.014553
      f+1     :     0.001100
      f-1     :     0.006364
      f+2     :     0.002742
      f-2     :     0.003445
      f+3     :     0.000390
      f-3     :     0.000121
  1 H s       :     0.583745  s :     0.583745
      pz      :     0.175028  p :     0.532939
      px      :     0.170156
      py      :     0.187755
      dz2     :     0.105525  d :     0.360040
      dxz     :     0.069158
      dyz     :     0.082093
      dx2y2   :     0.052717
      dxy     :     0.050547
  2 H s       :     0.592973  s :     0.592973
      pz      :     0.203321  p :     0.561330
      px      :     0.166111
      py      :     0.191898
      dz2     :     0.112773  d :     0.369096
      dxz     :     0.088433
      dyz     :     0.099988
      dx2y2   :     0.033749
      dxy     :     0.034152


                      *****************************
                      * MAYER POPULATION ANALYSIS *
                      *****************************

  NA   - Mulliken gross atomic population
  ZA   - Total nuclear charge
  QA   - Mulliken gross atomic charge
  VA   - Mayer's total valence
  BVA  - Mayer's bonded valence
  FA   - Mayer's free valence

  ATOM       NA         ZA         QA         VA         BVA        FA
  0 O      8.4612     8.0000    -0.4612     1.9819     1.9819     0.0000
  1 H      0.7619     1.0000     0.2381     1.0220     1.0220     0.0000
  2 H      0.7769     1.0000     0.2231     1.0317     1.0317     0.0000

  Mayer bond orders larger than 0.100000
B(  0-O ,  1-H ) :   0.9861 B(  0-O ,  2-H ) :   0.9958 

-------
TIMINGS
-------

Total SCF time: 0 days 0 hours 0 min 2 sec 

Total time                  ....       2.486 sec
Sum of individual times     ....       3.948 sec  (158.8%)

Fock matrix formation       ....       3.650 sec  (146.8%)
  Split-RI-J                ....       0.469 sec  ( 12.9% of F)
  Chain of spheres X        ....       1.530 sec  ( 41.9% of F)
Diagonalization             ....       0.024 sec  (  1.0%)
Density matrix formation    ....       0.002 sec  (  0.1%)
Population analysis         ....       0.003 sec  (  0.1%)
Initial guess               ....       0.047 sec  (  1.9%)
Orbital Transformation      ....       0.000 sec  (  0.0%)
Orbital Orthonormalization  ....       0.000 sec  (  0.0%)
DIIS solution               ....       0.028 sec  (  1.1%)
SOSCF solution              ....       0.014 sec  (  0.6%)

Maximum memory used throughout the entire SCF-calculation: 67.9 MB


           ************************************************************
           *        Program running with 4 parallel MPI-processes     *
           *              working on a common directory               *
           ************************************************************


--------------------------------------------------------------------------------
                             ORCA-MATRIX DRIVEN CI
--------------------------------------------------------------------------------


Wavefunction type
-----------------
Correlation treatment                      ...      CCSD     
Single excitations                         ... ON
Orbital optimization                       ... OFF
Calculation of Z vector                    ... OFF
Calculation of Brueckner orbitals          ... OFF
Perturbative triple excitations            ... ON
Calculation of F12 correction              ... OFF
Frozen core treatment                      ... chemical core (2 el)
Reference Wavefunction                     ... RHF
  Internal Orbitals:     1 ...    4 (  4 MO's/  8 electrons)
  Virtual  Orbitals:     5 ...   91 ( 87 MO's              )
Number of AO's                             ...     92
Number of electrons                        ...     10
Number of correlated electrons             ...      8

Algorithmic settings
--------------------
Integral transformation                    ... All integrals via the RI transformation
K(C) Formation                             ... RI-DLPNO
   PNO-Integral Storage                    ... ON DISK
   PNO occupation number cut-off           ... 1.000e-06
   Singles PNO occupation number cut-off   ... 3.000e-08
   PNO Mulliken prescreening cut-off       ... 1.000e-03
   Domain cut-off (Mulliken population)    ... 1.000e-03
   PNO Normalization                       ...    1
Maximum number of iterations               ...        50
Convergence tolerance (max. residuum)      ... 1.000e-06
Level shift for amplitude update           ... 2.000e-01
Maximum number of DIIS vectors             ...         7
DIIS turned on at iteration                ...         0
Damping before turning on DIIS             ...     0.500
Damping after turning on DIIS              ...     0.000
Pair specific amplitude update             ... OFF
Natural orbital iterations                 ... OFF
Perturbative natural orbital generation    ... OFF
Printlevel                                 ... 3

Singles Fock matrix elements calculated using PNOs.

Memory handling:
----------------
Maximum memory for working arrays          ...   4000 MB
Data storage in matrix containers          ... UNCOMPRESSED
Data type for integral storage             ... DOUBLE
In-Core Storage of quantities:
   Amplitudes+Sigma Vector      ... NO
   J+K operators                ... NO
   DIIS vectors                 ... NO
   3-external integrals         ... NO
   4-external integrals         ... NO

Localization treatment:
-----------------------
Localization option                        ...    6
Localization threshhold                    ... -1.0e+00
Using relative localization threshhold     ... 1.0e-08
Neglect threshold for strong pairs         ... 1.000e-05 Eh
Prescreening threshold for very weak pairs ... 1.000e-07 Eh

Initializing the integral package          ... done
Localizing the valence orbitals
Localizing the valence orbitals
------------------------------------------------------------------------------
                           ORCA ORBITAL LOCALIZATION
------------------------------------------------------------------------------

Input orbitals are from                  ... frag5.gbw
Output orbitals are to                   ... frag5.loc
Max. number of iterations                ... 128
Localizations seeded randomly            ... off
Convergence tolerance                    ... 2.000e-07
Using relative localization threshhold   ... 1.000e-08
Threshold for strong local MOs           ... 9.500e-01
Threshold for bond MOs                   ... 8.500e-01
Operator                                 ... 0
Orbital range for localization           ... 1 to 4
Localization criterion                   ... FOSTER-BOYS (AUGMENTED HESSIAN)
Doing the dipole integrals     ... o.k.
Initial value of the localization sum :   101.195151
ITERATION   0 : L=  102.7924999767 DL=  1.60e+00 (AVERGE_DL)=    0.5159697659 
ITERATION   1 : L=  103.2996271417 DL=  5.07e-01 (AVERGE_DL)=    0.2907252899 
ITERATION   2 : L=  103.4080322739 DL=  1.08e-01 (AVERGE_DL)=    0.1344154829 
ITERATION   3 : L=  103.4121641463 DL=  4.13e-03 (AVERGE_DL)=    0.0262420538 
ITERATION   4 : L=  103.4126067406 DL=  4.43e-04 (AVERGE_DL)=    0.0085886975 
ITERATION   5 : L=  103.4126527512 DL=  4.60e-05 (AVERGE_DL)=    0.0027691923 
ITERATION   6 : L=  103.4126571042 DL=  4.35e-06 (AVERGE_DL)=    0.0008517712 
ITERATION   7 : L=  103.4126575085 DL=  4.04e-07 (AVERGE_DL)=    0.0002595647 
LOCALIZATION SUM CONVERGED

------------------------------------------------------
AUGMENTED HESSIAN OPTIMIZATION OF FOSTER-BOYS ORBITALS
------------------------------------------------------

Spin operator:           0
Orbital window:          1 to 4
Number of iterations:    128
Gradient tolerance:      2.000e-07
Number of pairs:         6
Davidson threshold:      2000
Diagonalization method:  LAPACK
Iter:    0   L: 103.4126575085   Grad. norm: 3.788361e-04
   *** Likely close to a maximum now. ***
       Augmented Hessian eigenvalues:  8.17e-08 -1.28e+00 -3.21e+00 -4.70e+00 ... 
Iter:    1   L: 103.4126575493   Grad. norm: 4.023610e-08
LOCALIZATION HAS CONVERGED.

Eigenvalues of the Hessian:
  0 -1.280e+00
  1 -3.210e+00
  2 -4.697e+00
  3 -5.336e+00
  4 -7.200e+00
  5 -9.684e+00


--------------------------------------------------------------------------------
                    LOCALIZED MOLECULAR ORBITAL COMPOSITIONS
--------------------------------------------------------------------------------

The Mulliken populations for each LMO on each atom are computed
The LMO`s will be ordered according to atom index and type
  (A) Strongly localized MO`s have populations of >=0.950 on one atom
  (B) Two center bond orbitals have populations of >=0.850 on two atoms
  (C) Other MO`s are considered to be `delocalized`

FOUND  -   2 strongly local MO`s
       -   2 two center bond MO`s
       -   0 significantly delocalized MO`s

Rather strongly localized orbitals:
MO   2:   0O  -   1.001739
MO   1:   0O  -   1.001698
Bond-like localized orbitals:
MO   4:   2H  -   0.385648  and   0O  -   0.609723
MO   3:   1H  -   0.377324  and   0O  -   0.618256
Localized MO's were stored in: frag5.loc

Localizing the core orbitals
------------------------------------------------------------------------------
                           ORCA ORBITAL LOCALIZATION
------------------------------------------------------------------------------

Input orbitals are from                  ... frag5.loc
Output orbitals are to                   ... frag5.loc
Max. number of iterations                ... 128
Localizations seeded randomly            ... off
Convergence tolerance                    ... 2.000e-07
Using relative localization threshhold   ... 1.000e-08
Threshold for strong local MOs           ... 9.500e-01
Threshold for bond MOs                   ... 8.500e-01
Operator                                 ... 0
Orbital range for localization           ... 0 to 0
Localization criterion                   ... FOSTER-BOYS (AUGMENTED HESSIAN)
Doing the dipole integrals     ... o.k.

ORCA_LOC: ONLY ONE ORBITAL - SKIPPING LOCALIZATION


--------------------------------------------------------------------------------
                    LOCALIZED MOLECULAR ORBITAL COMPOSITIONS
--------------------------------------------------------------------------------

The Mulliken populations for each LMO on each atom are computed
The LMO`s will be ordered according to atom index and type
  (A) Strongly localized MO`s have populations of >=0.950 on one atom
  (B) Two center bond orbitals have populations of >=0.850 on two atoms
  (C) Other MO`s are considered to be `delocalized`

FOUND  -   1 strongly local MO`s
       -   0 two center bond MO`s
       -   0 significantly delocalized MO`s

Rather strongly localized orbitals:
MO   0:   0O  -   0.999167
Localized MO's were stored in: frag5.loc

Warning: reference  - re-canonicalizations have been set to INT 1 VIRT 1
Warning: internal orbitals are localized - no re-canonicalization of internal orbitals
Warning: UsePNO is turned on - no re-canonicalization of internal and virtual orbitals

--------------------------
CLOSED-SHELL FOCK OPERATOR
--------------------------

Restoring SHARK [2] ... ok
Entering RIJCOSX section for the Fock matrix
Trying to retrieve the full J-matrix              ... done
Updating the Fock matrix                          ... done
Making the frozen core Coulomb matrix             ... SHARKdone
Retrieving the full K-matrix                      ... done
Calculating the frozen core K-matrix              ... done
Updating the Fock matrix                          ... done
Time needed for Fock operator              ...            0.332 sec
Reference energy                           ...    -76.059069315

--------------
DLPNO SETTINGS (2015 fully linear scaling implementation)
--------------

TCutMKN:           1.000e-03
TCutPAO:           1.000e-03
TCutPNO:           1.000e-06
TCutPNOSingles:    3.000e-08
TCutEN:            9.700e-01
TCutPAOExt:        1.000e-01
TCutPairs:         1.000e-05
TCutPre:           1.000e-07
TCutOSV:           1.000e-06
TCutDOij:          1.000e-05
TCutDO:            5.000e-03
TCutC:             1.000e-04
TCutCPAO:          1.000e-03
TCutCMO:           1.000e-03
TScaleDOMP2PreScr: 2.000e+00
TScaleMKNMP2PreScr:1.000e+01
TScalePNOMP2PreScr:1.000e+00
PAO overlap thresh 1.000e-08
Using PNOs for Singles Fock computation
Use new domains
Use fully linear algorithm
TCutTNO:           1.000e-09
TCutMP2Pairs:      1.000e-06
TCutDOStrong:      1.000e-02
TCutDOWeak:        2.000e-02
TCutMKNStrong:     1.000e-02
TCutMKNWeak:       1.000e-01
NTCutTNO:          1

--------------------------
Mulliken population of the LMOs            ... ok
Performing proximity check                 ... 
 found 1 problematic atoms
   => In all likelyhood your results will be entirely fine!
   => In case you don't want to trust it, decrease TCutMKN to below 0.00098873.
   => but note that this is probably not necessary but will increase execution time
Calculating differential overlap integrals ... ok

--------------------------
ELECTRON PAIR PRESCREENING
--------------------------

Dipole-based pair screening          .... used

   TCutDOij = 1.000000e-05
   TCutPre  = 1.000000e-07
   .... Finished loop over pairs
Total time spent in the prescreening                  ...     0.000 sec
Time for pair-prescreening                            ...     0.000 sec
Time for pairlist organization                        ...     0.000 sec
Number of pairs skipped by pre-screening              ... 0
sum of pair energies estimated for screened out pairs ...       0.000000000000 Eh
Thresholds for map construction and integral transformation for crude MP2:
   TCutMKN                    ...     1.0e-02
   TCutDO                     ...     1.0e-02
   TCutPairs                  ...     1.0e-05
   TCutPNO_CrudeMP2           ...     1.0e-06
   TCutPNOSingles_CrudeMP2    ...     3.0e-08
--------------------------------
LOCAL RI TRANSFORMATION (IAVPAO)
--------------------------------

Orbital window:       1 to 4
Number of PAOs:      92
Basis functions:     92 (32 shells)
Aux. functions:     500 (124 shells)
Use SHARK:           on

Processing maps (0.0 sec)
Average map sizes:
   Aux shells -> MOs               4.0
   Aux shells -> PAOs             92.0
   MOs        -> AO shells        32.0
   PAOs       -> AO shells        32.0

Calculating integrals (0.1 sec, 1.410 MB)
Sorting integrals (0.0 sec, 1.404 MB)
Total time for the integral transformation: 0.1 sec
--------------------------------
INITIAL GUESS AND PNO GENERATION
--------------------------------

PNO truncation parameters                   .... 
    PAOOverlapThresh   =        1.000e-08

    TCutPairs          =        1.000e-05
    TCutPNO            =        1.000e-06
    TCutPNOSingles     =        3.000e-08
    TCutMP2Pairs       =        1.000e-06
    TCutMKN            =        1.000e-02
    TCutDO             =        1.000e-02

Pair selection                          .... not used
Type of local MP2 treatment                 .... semi-local MP2
Strategy for PNO selection                  .... occupation number selection
Pair density normalization                  .... MP2 norm
Spin component scaling                      .... not used

   .... Finished loop over pairs
Making pair pair interaction lists          ... 
Pair pair interaction statistics
Nr. of pairs:                        10
Nr. of Singles:                       4
Average (per pair domain)               (Total):
Atoms:                              3.0 (3)
PNOs:                              12.0
PAOs:                   92.0 (92)
Aux functions:                    365.6 (500)
AuxAtoms:                           1.8 (3)
EXT1 basis functions:              92.0 (92)
Interacting Pairs:                  3.0 (10)
Interacting Pairs - Singles:        4.0 (4)
Average (per Single domain):
Atoms (Singles):                    3.0 (3)
PNOs (Singles):                    61.0
Basis functions (Singles):         92.0 (92)
Interacting Singles - Singles:      4.0 (4)
Interacting Singles - Pairs:       10.0 (10)
done

                       ===========================
                         10 OF   10 PAIRS ARE KEPT CCSD PAIRS
                          0 OF   10 PAIRS ARE KEPT MP2 PAIRS FOR (T)
                          0 OF   10 PAIRS ARE SKIPPED
                       ===========================

Total time spent in the initial guess                 ...     0.025 sec
Pair domain construction                              ...     0.000 sec
Time for calculating MP2 Guess in PAOs                ...     0.010 sec
     Time for Local metric generation                 ...     0.000 sec
     Time for Local Kij generation                    ...     0.005 sec
     Time for Local MP2 calculation                   ...     0.000 sec
     Time for LMP2 iterations                         ...     0.000 sec
          prep and other time                         ...     0.000 sec
          Time for sigma                              ...     0.000 sec (    0.000 sec in k-loop)
          Time for DIIS                               ...     0.000 sec
          Time for Update                             ...     0.000 sec
      Time for LMP2 I/O                               ...     0.000 sec
      Time for Initial PNO                            ...     0.000 sec
Time for generating PNOs                              ...     0.001 sec
Time for pairlist organization                        ...     0.000 sec
Time for pair-pair interaction organization           ...     0.001 sec
Size of the domain VM**-1/2 file                      ...         0 MB
SL-MP2 correlation energy (all non-screened pairs)    ...      -0.261284126280 Eh

Initial PNO correlation energy                        ...      -0.260801671169 Eh
sum of pair energies prescreened and skipped MP2 pairs...       0.000000000000 Eh
sum of pair energies of crude MP2 skipped pairs only  ...       0.000000000000 Eh
sum of MP2 pair energies for pairs that were not kept ...       0.000000000000 Eh
sum of PNO error estimates for the kept pairs         ...      -0.000482455111 Eh
                                                          --------------------
sum of all corrections                                         -0.000482455111
Initial total correlation energy                               -0.261284126280
Thresholds for map construction and integral transformation for fine MP2 and CCSD(T) calculation:
   TCutMKN   ...     1.0e-03
   TCutDO    ...     5.0e-03
   TCutPairs ...     1.0e-05
   TCutCMO   ...     1.0e-03
   TCutCPAO  ...     1.0e-03

Thresholds for map construction and integral transformation for strong Triples:
   TCutMKN   ...     1.0e-02
   TCutDO    ...     1.0e-02
   TCutCMO   ...     1.0e-03
   TCutCPAO  ...     1.0e-03

Thresholds for map construction and integral transformation for weak Triples:
   TCutMKN   ...     1.0e-01
   TCutDO    ...     2.0e-02
   TCutCMO   ...     1.0e-03
   TCutCPAO  ...     1.0e-03

--------------------------------
LOCAL RI TRANSFORMATION (IAVPAO)
--------------------------------

Orbital window:       1 to 4
Number of PAOs:      92
Basis functions:     92 (32 shells)
Aux. functions:     500 (124 shells)
Use SHARK:           on

Processing maps (0.0 sec)
Average map sizes:
   Aux shells -> MOs               4.0
   Aux shells -> PAOs             92.0
   MOs        -> AO shells        32.0
   PAOs       -> AO shells        32.0

Calculating integrals (0.1 sec, 1.410 MB)
Sorting integrals (0.0 sec, 1.404 MB)
Total time for the integral transformation: 0.1 sec
--------------------------------
INITIAL GUESS AND PNO GENERATION
--------------------------------

PNO truncation parameters                   .... 
    ScaleTCutPNO       =        1.000e-02
    PAOOverlapThresh   =        1.000e-08

    TCutPairs          =        1.000e-05
    TCutPNO            =        1.000e-06
    TCutPNOSingles     =        3.000e-08
    TCutMP2Pairs       =        1.000e-06
    TCutMKN            =        1.000e-03
    TCutDO             =        5.000e-03

Pair selection                          .... not used
Type of local MP2 treatment                 .... full local PMP2
Strategy for PNO selection                  .... occupation number selection
Pair density normalization                  .... MP2 norm
Spin component scaling                      .... not used

PASS-1: Formation of initial guess LMP2 amplitudes
Initial amplitudes guess done. Entering LMP2 iteration loop:
   Max. no of iterations          ...  50
   Energy convergence tolerance   ...    1.0e-07
   Residual convergence tolerance ...    5.0e-07
   Fock matrix cutoff             ...    1.0e-05 Eh
   DIIS convergence acceleration parameters:
        Max # vectors in DIIS     ... 7
        Start iteration of DIIS   ... 0
        Levelshift                ... 2.000e-01
        Damping factor 1          ... 5.000e-01
        Damping factor 2          ... 1.000e+00
   L-MP2 PNO cut-off              ...   1.0e-08
   L-MP2 PNO cut-off (core)       ...   1.0e-10
60 of 60 terms in k-loop evaluated.

                           *** Turning on DIIS ***
LMP2-Iter=   0:  ELMP2= -0.266266576610  DE=   5.0e-03 RMAX=   5.2e-03
LMP2-Iter=   1:  ELMP2= -0.268969259246  DE=   2.7e-03 RMAX=   2.8e-03
LMP2-Iter=   2:  ELMP2= -0.269364047051  DE=   3.9e-04 RMAX=   5.4e-04
LMP2-Iter=   3:  ELMP2= -0.269415722919  DE=   5.2e-05 RMAX=   1.6e-04
LMP2-Iter=   4:  ELMP2= -0.269419597363  DE=   3.9e-06 RMAX=   1.9e-05
LMP2-Iter=   5:  ELMP2= -0.269419560444  DE=   3.7e-08 RMAX=   5.0e-06
LMP2-Iter=   6:  ELMP2= -0.269419546991  DE=   1.3e-08 RMAX=   3.9e-07
LMP2-Iter=   7:  ELMP2= -0.269419543891  DE=   3.1e-09 RMAX=   9.8e-08 => CONVERGED
PASS-2: Formation of Pair natural orbitals
   .... Finished loop over pairs

  - Occupation number analysis for DOUBLES-pairs:

Process 2:   (    4,     1):  99.936533772400 %
Process 3:   (    4,     4):  99.942534057139 %
Process 3:   (    4):  99.998319789323 % (IJ)
   Orbital Indices     % trace(D) 
  -----------------------------------
Process 0:   (    1,     1):  99.911667694956 %
Process 2:   (    4,     2):  99.936533686484 %
Process 2:   (    4,     3):  99.916693867333 %
Process 0:   (    2,     1):  99.945902167310 %
Process 0:   (    2,     2):  99.911666587967 %

  - Occupation number analysis for SINGLES-pairs:

   Orbital Index       % trace(D) 
  -----------------------------------
Process 0:   (    1):  99.998277736705 % (IJ)
Process 0:   (    2):  99.998277490341 % (IJ)
Process 1:   (    3,     1):  99.935743963087 %
Process 1:   (    3,     2):  99.935743255140 %
Process 1:   (    3,     3):  99.949380239648 %
Process 1:   (    3):  99.998211542335 % (IJ)

 PNO Occupation Number Statistics: 
  | Av. % of trace(Dij) retained        ...  99.932239929146
  | sigma^2 in % of trace(Dij) retained ...   1.74e-04
  | Av. % of trace(Di) retained         ...  99.998271639676
  | sigma^2 in % of trace(Di) retained  ...   1.50e-09
 Distributions of % trace(Dij) recovered:
  |       >= 99.9  ...    10 (100.0 % of all pairs)
 Distributions of % trace(Di) recovered :
  |       >= 99.9  ...     4 (100.0 % of all I-pairs )

Making pair pair interaction lists          ... 
Pair pair interaction statistics
Nr. of pairs:                        10
Nr. of Singles:                       4
Average (per pair domain)               (Total):
Atoms:                              3.0 (3)
PNOs:                              12.2
PAOs:                   92.0 (92)
Aux functions:                    466.4 (500)
AuxAtoms:                           2.7 (3)
EXT1 basis functions:              92.0 (92)
Interacting Pairs:                  3.0 (10)
Interacting Pairs - Singles:        4.0 (4)
Average (per Single domain):
Atoms (Singles):                    3.0 (3)
PNOs (Singles):                    61.5
Basis functions (Singles):         92.0 (92)
Interacting Singles - Singles:      4.0 (4)
Interacting Singles - Pairs:       10.0 (10)
done

                       ===========================
                         10 OF   10 PAIRS ARE KEPT
                       ===========================

Total time spent in the initial guess                 ...     0.115 sec
Pair domain construction                              ...     0.000 sec
Time for calculating MP2 Guess in PAOs                ...     0.023 sec
     Time for Local metric generation                 ...     0.000 sec
     Time for Local Kij generation                    ...     0.018 sec
     Time for Local MP2 calculation                   ...     0.000 sec
     Time for LMP2 iterations                         ...     0.058 sec
          prep and other time                         ...     0.001 sec
          Time for sigma                              ...     0.021 sec (    0.019 sec in k-loop)
          Time for DIIS                               ...     0.025 sec
          Time for Update                             ...     0.003 sec
      Time for LMP2 I/O                               ...     4.179 sec
      Time for Initial PNO                            ...     0.005 sec
Time for generating PNOs                              ...     0.001 sec
Time for pairlist organization                        ...     0.000 sec
Time for pair-pair interaction organization           ...     0.000 sec
Size of the domain VM**-1/2 file                      ...        22 MB
Size of the P2V_red file                              ...         0 MB
L-MP2 correlation energy (all non-screened pairs)     ...      -0.269419543891 Eh
L-MP2 PNO error correction                            ...      -0.000001861421 Eh
                                                          --------------------
Initial total L-MP2 energy (non-screened pairs)       ...      -0.269421405312 Eh

Initial PNO correlation energy                        ...      -0.268918879757 Eh
sum of pair energies estimated for screened out pairs ...       0.000000000000 Eh
sum of MP2 pair energies for pairs that were not kept ...       0.000000000000 Eh
sum of PNO error estimates for the kept pairs         ...      -0.000502525555 Eh
                                                          --------------------
sum of all corrections                                         -0.000502525555
Initial total correlation energy                               -0.269421405312
Thresholds for map construction and integral transformation for fine MP2 and CCSD(T) calculation:
   TCutMKN   ...     1.0e-03
   TCutDO    ...     5.0e-03
   TCutPairs ...     1.0e-05
   TCutCMO   ...     1.0e-03
   TCutCPAO  ...     1.0e-03

Time for aux screen maps:            0.002
Time for maps after fine MP2:            0.003
-----------------------------
LOCAL RI TRANSFORMATION (IJV)
-----------------------------

Orbital window:       1 to 4
Basis functions:     92 (32 shells)
Aux. functions:     500 (124 shells)
Use SHARK:           on

Processing maps (0.0 sec)
Average map sizes:
   Aux shells -> MOs(i)            4.0
   Aux shells -> MOs(j)            4.0
   MOs        -> AO shells        32.0

Calculating integrals (0.1 sec, 0.067 MB)
Sorting integrals (0.0 sec, 0.061 MB)
Total time for the integral transformation: 0.1 sec
--------------------------------
LOCAL RI TRANSFORMATION (VABPAO)
--------------------------------

Number of PAOs:      92
Basis functions:     92 (32 shells)
Aux. functions:     500 (124 shells)
Use SHARK:           on

Processing maps (0.0 sec)
Average map sizes:
   Aux shells -> PAOs             92.0
   PAOs       -> AO shells        32.0

Calculating integrals (0.1 sec, 32.293 MB)
Finished
Precomputing pair/pair interactions        ... 

-------------------------------------
Pair Pair Term precalculation with     
RI-(ij|mn) and (im|jn) transformation  
ON THE FLY                             
-------------------------------------

Max core memory to be used                    ...   4000 MB
Number of batches needed                      ...      1 
Average Memory used per batch                 ...      0 MB
Pair Pair terms per batch                     ...      0 
Total number of pairs                         ...     10 
Memory needed for all IJPairs                 ...      0 MB
   IBatch   1 (of   1)              ... done (    0.343 sec)
Total EXT                           ...           0.343 sec

Detailed timings: 
Reading/generating VMAT                    ...          0.002 sec
Reading 3-index integrals                  ...          0.018 sec
Sorting of data                            ...          0.133 sec
Get Pair1 ...          0.000 sec
Get Pair2 ...          0.000 sec
Get Pair3 ...          0.000 sec
Get Pair4 ...          0.000 sec
Get Pair5 ...          0.000 sec
Get Pair6 ...          0.000 sec
Orthogonalization of the 3-index integrals ...          0.016 sec
Multipl. of 3-index integrals              ...          0.141 sec
GetNewMat              ...          0.006 sec
Generating IJMN (orthog. + mult.)          ...          0.240 sec
Generating IJMN (orthog. + mult.) 1         ...          0.217 sec
Generating IJMN (orthog. + mult.) 2         ...          0.000 sec
Generating IJMN (orthog. + mult.) 3         ...          0.008 sec
Generating IJMN (orthog. + mult.) 4         ...          0.015 sec
Generating IMJN (orthog. + mult.)          ...          0.024 sec

done (    0.413 sec)
---------------------
RI-PNO TRANSFORMATION
---------------------

Total Number of PNOs                   ...   408
Average number of PNOs per pair        ...    40
Maximal number of PNOs per pair        ...    43
   #pairs with  1 -  5 PNOs   :    0
   #pairs with  6 - 10 PNOs   :    0
   #pairs with 11 - 15 PNOs   :    0
   #pairs with 16 - 20 PNOs   :    0
   #pairs with 21 - 25 PNOs   :    0
   #pairs with 26 - 30 PNOs   :    0
   #pairs with 31 - 35 PNOs   :    0
   #pairs with 36 - 40 PNOs   :    4
   #pairs with 41 - 45 PNOs   :    6
   #pairs with 46 - 50 PNOs   :    0

Generation of (ij|ab)[P] integrals            ... on
Generation of (ia|bc)[P],(ja|bc)[P] integrals ... on
Storage of 3 and 4 external integrals         ... on
Generation of ALL (ka|bc)[P] integrals        ... on
Keep RI integrals in memory                   ... off
PNO Integral generation
Max core memory to be used                    ...   4000 MB
Number of batches needed                      ...      1 
Memory available for IJPairs                  ...   3946 MB
Memory needed per IJPair                      ...     11 MB
Total number of pairs                         ...     10 
Memory needed for all IJPairs                 ...    107 MB

Ibatch:  1 (of  1)
Starting 2-4 index PNO integral generation ... done

Timings:
Total PNO integral transformation time     ...          0.318 sec
Reading/generating VMAT                    ...          0.002 sec
Reading 3-index integrals                  ...          0.014 sec
Sorting of data (for reading)              ...          0.011 sec
      Sorting of data (for reading) 1      ...          0.000 sec
      Sorting of data (for reading) 2      ...          0.010 sec
      Sorting of data (for reading) 3      ...          0.000 sec
      Sorting of data (for reading) 4      ...          0.000 sec
      Sorting of data (for reading) 5      ...          0.001 sec
      Sorting of data (for reading) 6      ...          0.000 sec
Sorting of data (for reading) - only MN    ...          0.010 sec
Sorting of data (for intermediates)        ...          0.001 sec
Sorting of data (for writing)              ...          0.000 sec
Transformation of 3-index int. to PNO basis...          0.060 sec
Orthogonalization of the 3-index integrals ...          0.040 sec
                                        ab ...          0.035 sec
                                        ia ...          0.002 sec
                                        ja ...          0.002 sec
                                        ka ...          0.000 sec
                                        ij ...          0.000 sec
                                      kikj ...          0.001 sec
Multipl. of orthog. 3-index integrals      ...          0.073 sec
Generating of PNO1 integrals               ...          0.001 sec
Generating of K and J integrals            ...          0.001 sec
Generating of PNO3ij integrals             ...          0.014 sec
Generating of PNO3All integrals            ...          0.028 sec
Generating of PNO4 integrals               ...          0.144 sec
Generating of IKJL integrals               ...          0.000 sec
Storing data in files                      ...          0.114 sec
tmPrep ...          0.000 sec
tmPrep2 ...          0.002 sec
tmGenerate ...          0.230 sec
tmRead ...          0.086 sec
tmVIJSum ...          0.000 sec
tmVIMSum ...          0.003 sec
tmVABSum ...          0.082 sec
tmGetPairSum ...          0.000 sec
tmGetAuxAddrSum ...          0.000 sec
tmGetNewMatSum ...          0.000 sec
Size of the 3-external file                ...         5 MB
Size of the 4-external file                ...        28 MB
Size of the IKJL file                      ...         0 MB
Size of the all 3-external file            ...        10 MB
Size of the 1-external file                ...         0 MB

Making pair/pair overlap matrices          ... done (    0.002 sec)
Size of the pair overlap file              ... 1 MB
Redoing the guess amplitudes               ... done (    0.000 sec)

-------------------------
FINAL STARTUP INFORMATION
-------------------------

E(0)                                       ...    -76.059069315
E(L-MP2)                                   ...     -0.269421405
E(L-MP2) including corrections             ...     -0.269421405
Initial E(tot)                             ...    -76.328490721
<T|T>                                      ...      0.058208413
Number of pairs included                   ... 10
Total number of pairs                      ... 10

------------------------------------------------
                  RHF COUPLED CLUSTER ITERATIONS
------------------------------------------------

Number of PNO amplitudes to be optimized   ...        16722
Number of non-PNO amplitudes               ...        75690
Untruncated number of regular amplitudes   ...        75690

Iter       E(tot)           E(Corr)          Delta-E          Residual     Time
  0    -76.320271329     -0.260699488      0.008721917      0.015183784    0.39
                           *** Turning on DIIS ***
  1    -76.326025667     -0.266453826     -0.005754337      0.010384979    0.40
  2    -76.331731007     -0.272159166     -0.005705340      0.003502687    0.39
  3    -76.332845835     -0.273273995     -0.001114828      0.001327405    0.39
  4    -76.333127035     -0.273555194     -0.000281200      0.000282739    0.39
  5    -76.333176260     -0.273604419     -0.000049225      0.000100488    0.40
  6    -76.333187498     -0.273615657     -0.000011238      0.000026139    0.39
  7    -76.333188489     -0.273616648     -0.000000991      0.000008332    0.39
  8    -76.333188924     -0.273617083     -0.000000435      0.000002585    0.41
  9    -76.333188769     -0.273616928      0.000000155      0.000000847    0.39
               --- The Coupled-Cluster iterations have converged ---

----------------------
COUPLED CLUSTER ENERGY
----------------------

E(0)                                       ...    -76.059069315
E(CORR)(strong-pairs)                      ...     -0.273616928
E(CORR)(weak-pairs)                        ...     -0.000502526
E(CORR)(corrected)                         ...     -0.274119453
E(TOT)                                     ...    -76.333188769
Singles Norm <S|S>**1/2                    ...      0.027774254  
T1 diagnostic                              ...      0.009819682  

------------------
LARGEST AMPLITUDES
------------------
   3->  5   3->  5       0.053431
   4->  5   4->  5       0.050102
   4->  5   4-> 15       0.021994
   4-> 15   4->  5       0.021994
   2->  7   2->  7       0.019703
   1->  7   1->  7       0.019703
   3->  5   3-> 16       0.019190
   3-> 16   3->  5       0.019190
   1->  6   1->  6       0.018029
   2->  6   2->  6       0.018012
   4->  7   4->  7       0.017393
   4-> 15   4-> 15       0.017070
   2->  5   2->  5       0.016833
   1->  5   1->  5       0.016809
   3->  7   3->  7       0.016062
   2-> 14   2-> 14       0.015979


-------------------------------------------
DLPNO BASED TRIPLES CORRECTION
-------------------------------------------

Singles multiplier          ...  1.000000
TCutTNO                     ... 1.000e-09
TCutMP2Pairs                ... 1.000e-06
TCutDOStrong                ... 1.000e-02
TCutMKNStrong               ... 1.000e-02
TCutDOWeak                  ... 2.000e-02
TCutMKNWeak                 ... 1.000e-01

Parameters used in iterative triples
TCutFock                    ... 1.000e-03
TCutWeak                    ... 1.000e-08
TCutWeakGuess               ... 6.000e-06
TCutIter                    ... 1.000e-03
TNOScaleS                   ... 1.000e+01
TNOScaleW                   ... 1.000e+02
ETol                        ... 1.000e-04

Fragment selection                          .... not used
Number of Triples that are to be computed   ...        16
TNO Construction, Integral generation and (T) correction calculation are done consecutively per batch.
Batch size determined on the fly.
Max core memory to be used                        ...   4000 MB
Memory available for Triples                      ...   3944 MB
Total number of Triples                           ...     16 

 . . . . . . . . .
10% done  
20% done  
30% done  
40% done  
50% done  
60% done  
70% done  
80% done  
90% done               (      1.039 sec)

-------------------
Triples Iterations:
-------------------

The T1 Strong/Weak pair is = 13/3 

Iter        E(Triple)      Delta-E            Time
  0     0.000000000000    0.008387473188      1.06
  1    -0.008695742377    0.000308269189      0.40
  2    -0.008728452536    0.000032710160      0.40

------------------
TRIPLES CORRECTION
------------------

The Conventional (T0) is    -0.008401331886
The Truncated    (T0) is    -0.008387473188
The corrected     (T) is    -0.008742311235

Triples timings:
Total time for T0               ...     1.058 sec
Total time for Iterative (T)    ...     0.807 sec
Total time of overall (T)       ...     2.010 sec

Triples List generation         ...     0.000 sec
TNO generation                  ...     0.017 sec
Pair density generation         ...     0.000 sec
Look up tables                  ...     0.000 sec
Generating 3-index integrals    ...     0.179 sec
  Make 4-ind.int. from 3-ind.int...     0.174 sec
  Projecting amplitudes (D + S) ...     0.006 sec
  Downprojecting integrals      ...     0.241 sec
  Energy contr. (sum over a,b,c)...     0.235 sec
Fitting ET(->0)                 ...     0.000 sec

Everything after 3-index        ...     0.860 sec

Timing details:
 TNO integrals                  ...     0.337 sec
   Reading 3-index integrals    ...     0.012 sec
   Sorting integrals            ...     0.086 sec
       Sorting integrals 1      ...     0.000 sec
       Sorting integrals 2      ...     0.013 sec
       Sorting integrals 3      ...     0.005 sec
       Sorting integrals 4      ...     0.000 sec
       Sorting integrals 5      ...     0.001 sec
       Sorting integrals 6      ...     0.068 sec
   Calculating local VM**-1/2   ...     0.007 sec
   Orthogonal. integrals        ...     0.011 sec
   Multipl. 3-index integrals   ...     0.221 sec
   All concerning IRIab (w/TNO) ...     0.082 sec

 Calculate W0/W1                ...     0.203 sec
 W 3-ext contribution           ...     0.107 sec
 W 3-int contribution           ...     0.021 sec
 Sorting W                      ...     0.067 sec

 V exchange contribution        ...     0.133 sec

 Timings for Triples without generation
     of 3-index integrals       ...     0.860 sec
       0 weak pairs             ...     0.860 sec
       1 weak pair              ...     0.000 sec
       2 weak pairs             ...     0.000 sec
       3 weak pairs             ...     0.000 sec
  Extra time for extrapolation  ...     0.000 sec

Number of Triples   (0, 1, 2, 3 weak pairs; overall):     16       0       0       0  (    16)
Number of Atoms     (0, 1, 2, 3 weak pairs; overall):    3.0     0.0     0.0     0.0  (     3)
Number of PAOs      (0, 1, 2, 3 weak pairs; overall):   92.0     0.0     0.0     0.0  (    92)
Number of AuxFcns   (0, 1, 2, 3 weak pairs; overall):  402.0     0.0     0.0     0.0  (   500)
Number of TNOs      (0, 1, 2, 3 weak pairs         ):   74.9     0.0     0.0     0.0
Aver. Number of NTNO, Atoms, PAOs, AuxFcns / Triples:     16    74.9     3.0    92.0   402.0

Triples Correction (T)                     ...     -0.008742311
Final correlation energy                   ...     -0.282861765
E(CCSD)                                    ...    -76.333188769
E(CCSD(T))                                 ...    -76.341931080


------------------------------
PAIR CORRELATION ENERGIES (Eh)
------------------------------


------------------------------------------------------------------------------------------------------
    i     j         EP(Guess)         EP(Final)       Ratio       EP(aa)            EP(ab)     #PNOs  
------------------------------------------------------------------------------------------------------
    3     3  :     -0.028685816      -0.031985061     0.90     -0.000000000      -0.031985061          40 
    4     4  :     -0.028382066      -0.031556151     0.90     -0.000000000      -0.031556151          39 
    2     1  :     -0.030357963      -0.029634757     1.02     -0.010526264      -0.019108494          43 
    3     2  :     -0.027378743      -0.026388535     1.04     -0.009724919      -0.016663617          43 
    3     1  :     -0.027376630      -0.026386513     1.04     -0.009724424      -0.016662090          43 
    2     2  :     -0.024407524      -0.026329715     0.93     -0.000000000      -0.026329715          36 
    1     1  :     -0.024407241      -0.026329558     0.93     -0.000000000      -0.026329558          36 
    4     2  :     -0.027185403      -0.026232567     1.04     -0.009678088      -0.016554478          43 
    4     1  :     -0.027184664      -0.026232318     1.04     -0.009677851      -0.016554467          43 
    4     3  :     -0.024055355      -0.022539176     1.07     -0.008507136      -0.014032041          42 



--------------------------------------------------------------------------------
                                    TIMINGS
--------------------------------------------------------------------------------


Total execution time                   ...        8.272 sec

Localization of occupied MO's          ...        0.233 sec (  2.8%)
Fock Matrix Formation                  ...        0.332 sec (  4.0%)
Global overlap, Fock, MKN matrices     ...        0.118 sec (  1.4%)
Differential overlap integrals         ...        0.320 sec (  3.9%)
Organizing maps                        ...        0.005 sec (  0.1%)
RI 3-index integral generations        ...        0.336 sec (  4.1%)
RI-PNO integral transformation         ...        0.737 sec (  8.9%)
Initial Guess                          ...        0.144 sec (  1.7%)
DIIS Solver                            ...        0.041 sec (  0.5%)
State Vector Update                    ...        0.001 sec (  0.0%)
Sigma-vector construction              ...        3.921 sec ( 47.4%)
  <D|H|D>(0-ext)                       ...        0.017 sec (  0.4% of sigma)
  <D|H|D>(2-ext Fock)                  ...        0.001 sec (  0.0% of sigma)
  <D|H|D>(2-ext)                       ...        0.065 sec (  1.7% of sigma)
  <D|H|D>(4-ext)                       ...        0.850 sec ( 21.7% of sigma)
  <D|H|D>(4-ext-corr)                  ...        2.574 sec ( 65.6% of sigma)
  CCSD doubles correction              ...        0.004 sec (  0.1% of sigma)
  <S|H|S>                              ...        0.033 sec (  0.8% of sigma)
  <S|H|D>(1-ext)                       ...        0.005 sec (  0.1% of sigma)
  <S|H|D>(3-ext)                       ...        0.022 sec (  0.6% of sigma)
  Fock-dressing                        ...        0.101 sec (  2.6% of sigma)
  Singles amplitudes                   ...        0.006 sec (  0.2% of sigma)
  (ik|jl)-dressing                     ...        0.012 sec (  0.3% of sigma)
  (ij|ab),(ia|jb)-dressing             ...        0.038 sec (  1.0% of sigma)
Total Time for computing (T)           ...        2.010 sec ( 24.3% of ALL)


Maximum memory used throughout the entire MDCI-calculation: 224.8 MB

-------------------------   --------------------
FINAL SINGLE POINT ENERGY       -76.341931079937
-------------------------   --------------------


                            ***************************************
                            *     ORCA property calculations      *
                            ***************************************


  WARNING: The energy has been calculated at the MDCI level but the densities
           used in the property calculations are still SCF densities
           MDCI response densities have not been calculated 
           use %mdci Density linearized end
           or  %mdci Density unrelaxed end
           or  %mdci Density orbopt end

                                    ---------------------
                                    Active property flags
                                    ---------------------
   (+) Dipole Moment


------------------------------------------------------------------------------
                       ORCA ELECTRIC PROPERTIES CALCULATION
------------------------------------------------------------------------------

Dipole Moment Calculation                       ... on
Quadrupole Moment Calculation                   ... off
Polarizability Calculation                      ... off
GBWName                                         ... frag5.gbw
Electron density                                ... frag5.scfp
The origin for moment calculation is the CENTER OF MASS  = (-1.646321,  3.480524 -3.267680)

-------------
DIPOLE MOMENT
-------------
                                X             Y             Z
Electronic contribution:      0.07960       0.18488       0.01057
Nuclear contribution   :     -0.38407      -0.89930      -0.06993
                        -----------------------------------------
Total Dipole Moment    :     -0.30448      -0.71442      -0.05935
                        -----------------------------------------
Magnitude (a.u.)       :      0.77886
Magnitude (Debye)      :      1.97970



--------------------
Rotational spectrum 
--------------------
 
Rotational constants in cm-1:    27.180034    13.990434     9.236244 
Rotational constants in MHz : 814836.927234 419422.665353 276895.620582 

 Dipole components along the rotational axes: 
x,y,z [a.u.] :     0.034194    -0.778107    -0.000076 
x,y,z [Debye]:     0.086913    -1.977792    -0.000193 

 

--------------------------------
SUGGESTED CITATIONS FOR THIS RUN
--------------------------------

Below you find a list of papers that are relevant to this ORCA run
We neither can nor want to force you to cite these paper, but we appreciate if you do
You receive ORCA, which is the product of a lot of hard work by many enthusiastic individuals, for free
The *only* thing we kindly ask in return is that you cite our papers,
We deeply appreciate it, if you show your appreciation for ORCA but *not* just citing the generic ORCA reference.

Please note that relegating all ORCA citations to the supporting information does *not* help us.
SI sections are not index - citations you put there will not count into our citation statistics
But we need these citations in order to attract the funding ressources that allow us to do what we are doing

Therefore, please consider citing at least a few of the papers listed below, if you are a happy ORCA user

In addition to the list printed below, the program has created the file frag5.bibtex that contains the list in bibtex format
In this format, you can import it easily in all common literature databanks and citation aid programs


List of essential papers. We consider these as the minimum necessary citations

  1. Neese,F.
     Software update: the ORCA program system, version 5.0
     WIRES Comput. Molec. Sci., 2022 12(1)e1606
     doi.org/10.1002/wcms.1606

List of papers to cite with high priority. The work reported in these papers was absolutely
necessary for this run to complete.
Our perspective: the developers of density functionals and basis sets usually get cited in chemistry papers
Good! But without the algorithms to do something with them, the functionals or basis sets would not do anything.
Hence, in our opinion, the algorithm design and method developments papers are equally worthy of getting cited

  1. Neese,F.
     An improvement of the resolution of the identity approximation for the formation of the Coulomb matrix
     J. Comp. Chem., 2003 24(14)1740-1747
     doi.org/10.1002/jcc.10318
  2. Neese,F.; Wennmohs,F.; Hansen,A.; Becker,U.
     Efficient, approximate and parallel Hartree-Fock and hybrid DFT calculations. A 'chain-of-spheres' algorithm for the Hartree-Fock exchange
     Chem. Phys., 2009 356(1-3)98-109
     doi.org/10.1016/j.chemphys.2008.10.036
  3. Neese,F.; Hansen,A.; Liakos,D.G.
     Efficient and accurate approximations to the local coupled cluster singles doubles method using a truncated pair natural orbital basis
     J. Chem. Phys., 2009 131 064103
     doi.org/10.1063/1.3173827
  4. Neese,F.; Wennmohs,F.; Hansen,A.
     Efficient and accurate local approximations to coupled-electron pair approaches: An attempt to revive the pair natural orbital method
     J. Chem. Phys., 2009 130 114108
     doi.org/10.1063/1.3086717
  5. Riplinger,C.; Neese,F.
     An efficient and near linear scaling pair natural orbital based local coupled cluster method
     J. Chem. Phys., 2013 138(3)Art. No. 034106
     doi.org/10.1063/1.4773581
  6. Riplinger,C.; Sandhoefer,B.; Hansen,A.; Neese,F.
     Natural triple excitations in local coupled cluster calculations with pair natural orbitals
     J. Chem. Phys., 2013 139(13)Art. No. 134101
     doi.org/10.1063/1.4821834
  7. Riplinger,C.; Pinski,P.; Becker,U.; Valeev,E.F.; Neese,F.
     Sparse maps-A systematic infrastructure for reduced-scaling electronic structure methods. II. Linear scaling domain based pair natural orbital coupled cluster theory
     J. Chem. Phys., 2016 144 
     doi.org/10.1063/1.4939030
  8. Bistoni,G.; Riplinger,C.; Minenkov,Y.; Cavallo,L.; Auer,A.A.; Neese,F.
     Treating Subvalence Correlation Effects in Domain Based Pair Natural Orbital Coupled Cluster Calculations: An Out-of-the-Box Approach
     J. Theo. Comp. Chem., 2017 13 3220-3227
     doi.org/10.1021/acs.jctc.7b00352
  9. Guo,Y.; Riplinger,C.; Becker,U.; Liakos,D.G.; Minenkov,Y.; Cavallo,L.; Neese,F.
     Communication: An improved linear scaling perturbative triples correction for the domain based local pair-natural orbital based singles and doubles coupled cluster method DLPNO-CCSD(T)
     J. Chem. Phys., 2018 148 5
     doi.org/10.1063/1.5011798
 10. Helmich-Paris,B.; de Souza,B.; Neese,F.; Izsk,R.
     An improved chain of spheres for exchange algorithm
     J. Chem. Phys., 2021 155 104109
     doi.org/doi: 10.1063/5.0058766.

List of suggested additional citations. These are papers that are important in the 'surrounding' of 
of this run, or papers that preceded the highly important papers. If you like your results we are grateful for a citation.

  1. Izsak,R.; Neese,F.
     An overlap fitted chain of spheres exchange method
     J. Chem. Phys., 2011 135 144105
     doi.org/10.1063/1.3646921
  2. Izsak,R.; Hansen,A.; Neese,F.
     The resolution of identity and chain of spheres approximations for the LPNO-CCSD singles Fock term
     Molec. Phys., 2012 110 2413-2417
     doi.org/10.1080/00268976.2012.687466
  3. Neese,F.
     The ORCA program system
     WIRES Comput. Molec. Sci., 2012 2(1)73-78
     doi.org/10.1002/wcms.81
  4. Izsak,R.; Neese,F.; Klopper,W.
     Robust fitting techniques in the chain of spheres approximation to the Fock exchange: The role of the complementary space
     J. Chem. Phys., 2013 139 
     doi.org/10.1063/1.4819264
  5. Neese,F.
     Software update: the ORCA program system, version 4.0
     WIRES Comput. Molec. Sci., 2018 8(1)1-6
     doi.org/10.1002/wcms.1327
  6. Neese,F.; Wennmohs,F.; Becker,U.; Riplinger,C.
     The ORCA quantum chemistry program package
     J. Chem. Phys., 2020 152 Art. No. L224108
     doi.org/10.1063/5.0004608

Timings for individual modules:

Sum of individual times         ...       12.274 sec (=   0.205 min)
GTO integral calculation        ...        0.749 sec (=   0.012 min)   6.1 %
SCF iterations                  ...        2.863 sec (=   0.048 min)  23.3 %
MDCI module                     ...        8.662 sec (=   0.144 min)  70.6 %
                             ****ORCA TERMINATED NORMALLY****
TOTAL RUN TIME: 0 days 0 hours 0 minutes 12 seconds 933 msec