                                 *****************
                                 * O   R   C   A *
                                 *****************

                                            #,                                       
                                            ###                                      
                                            ####                                     
                                            #####                                    
                                            ######                                   
                                           ########,                                 
                                     ,,################,,,,,                         
                               ,,#################################,,                 
                          ,,##########################################,,             
                       ,#########################################, ''#####,          
                    ,#############################################,,   '####,        
                  ,##################################################,,,,####,       
                ,###########''''           ''''###############################       
              ,#####''   ,,,,##########,,,,          '''####'''          '####       
            ,##' ,,,,###########################,,,                        '##       
           ' ,,###''''                  '''############,,,                           
         ,,##''                                '''############,,,,        ,,,,,,###''
      ,#''                                            '''#######################'''  
     '                                                          ''''####''''         
             ,#######,   #######,   ,#######,      ##                                
            ,#'     '#,  ##    ##  ,#'     '#,    #''#        ######   ,####,        
            ##       ##  ##   ,#'  ##            #'  '#       #        #'  '#        
            ##       ##  #######   ##           ,######,      #####,   #    #        
            '#,     ,#'  ##    ##  '#,     ,#' ,#      #,         ##   #,  ,#        
             '#######'   ##     ##  '#######'  #'      '#     #####' # '####'        



                  #######################################################
                  #                        -***-                        #
                  #          Department of theory and spectroscopy      #
                  #    Directorship and core code : Frank Neese         #
                  #        Max Planck Institute fuer Kohlenforschung    #
                  #                Kaiser Wilhelm Platz 1               #
                  #                 D-45470 Muelheim/Ruhr               #
                  #                      Germany                        #
                  #                                                     #
                  #                  All rights reserved                #
                  #                        -***-                        #
                  #######################################################


                         Program Version 5.0  -  CURRENT   -
                                (GIT: $76ccee9ca$)
                ($2022-06-14 15:14:42 +0200 $)

                  !                     WARNING:                         !
                  !         This is a DEVELOPMENT version                !

                         (BUILD: $Mi 15. Jun 00:07:41 CEST 2022$)


 With contributions from (in alphabetic order):
   Daniel Aravena         : Magnetic Suceptibility
   Michael Atanasov       : Ab Initio Ligand Field Theory (pilot matlab implementation)
   Alexander A. Auer      : GIAO ZORA, VPT2 properties, NMR spectrum
   Ute Becker             : Parallelization
   Giovanni Bistoni       : ED, misc. LED, open-shell LED, HFLD
   Martin Brehm           : Molecular dynamics
   Dmytro Bykov           : SCF Hessian
   Vijay G. Chilkuri      : MRCI spin determinant printing, contributions to CSF-ICE
   Dipayan Datta          : RHF DLPNO-CCSD density
   Achintya Kumar Dutta   : EOM-CC, STEOM-CC
   Dmitry Ganyushin       : Spin-Orbit,Spin-Spin,Magnetic field MRCI
   Miquel Garcia          : C-PCM and meta-GGA Hessian, CC/C-PCM, Gaussian charge scheme
   Yang Guo               : DLPNO-NEVPT2, F12-NEVPT2, CIM, IAO-localization
   Andreas Hansen         : Spin unrestricted coupled pair/coupled cluster methods
   Benjamin Helmich-Paris : MC-RPA, TRAH-SCF, COSX integrals
   Lee Huntington         : MR-EOM, pCC
   Robert Izsak           : Overlap fitted RIJCOSX, COSX-SCS-MP3, EOM
   Marcus Kettner         : VPT2
   Christian Kollmar      : KDIIS, OOCD, Brueckner-CCSD(T), CCSD density, CASPT2, CASPT2-K, improved NEVPT2
   Simone Kossmann        : Meta GGA functionals, TD-DFT gradient, OOMP2, MP2 Hessian
   Martin Krupicka        : Initial AUTO-CI
   Lucas Lang             : DCDCAS
   Marvin Lechner         : AUTO-CI (C++ implementation), FIC-MRCC
   Dagmar Lenk            : GEPOL surface, SMD
   Dimitrios Liakos       : Extrapolation schemes; Compound Job, initial MDCI parallelization
   Dimitrios Manganas     : Further ROCIS development; embedding schemes
   Dimitrios Pantazis     : SARC Basis sets
   Anastasios Papadopoulos: AUTO-CI, single reference methods and gradients
   Taras Petrenko         : DFT Hessian,TD-DFT gradient, ASA, ECA, R-Raman, ABS, FL, XAS/XES, NRVS
   Peter Pinski           : DLPNO-MP2, DLPNO-MP2 Gradient
   Christoph Reimann      : Effective Core Potentials
   Marius Retegan         : Local ZFS, SOC
   Christoph Riplinger    : Optimizer, TS searches, QM/MM, DLPNO-CCSD(T), (RO)-DLPNO pert. Triples
   Tobias Risthaus        : Range-separated hybrids, TD-DFT gradient, RPA, STAB
   Michael Roemelt        : Original ROCIS implementation
   Masaaki Saitow         : Open-shell DLPNO-CCSD energy and density
   Barbara Sandhoefer     : DKH picture change effects
   Avijit Sen             : IP-ROCIS
   Kantharuban Sivalingam : CASSCF convergence, NEVPT2, FIC-MRCI
   Bernardo de Souza      : ESD, SOC TD-DFT
   Georgi Stoychev        : AutoAux, RI-MP2 NMR, DLPNO-MP2 response
   Willem Van den Heuvel  : Paramagnetic NMR
   Boris Wezisla          : Elementary symmetry handling
   Frank Wennmohs         : Technical directorship


 We gratefully acknowledge several colleagues who have allowed us to
 interface, adapt or use parts of their codes:
   Stefan Grimme, W. Hujo, H. Kruse, P. Pracht,  : VdW corrections, initial TS optimization,
                  C. Bannwarth, S. Ehlert          DFT functionals, gCP, sTDA/sTD-DF
   Ed Valeev, F. Pavosevic, A. Kumar             : LibInt (2-el integral package), F12 methods
   Garnet Chan, S. Sharma, J. Yang, R. Olivares  : DMRG
   Ulf Ekstrom                                   : XCFun DFT Library
   Mihaly Kallay                                 : mrcc  (arbitrary order and MRCC methods)
   Jiri Pittner, Ondrej Demel                    : Mk-CCSD
   Frank Weinhold                                : gennbo (NPA and NBO analysis)
   Christopher J. Cramer and Donald G. Truhlar   : smd solvation model
   Lars Goerigk                                  : TD-DFT with DH, B97 family of functionals
   V. Asgeirsson, H. Jonsson                     : NEB implementation
   FAccTs GmbH                                   : IRC, NEB, NEB-TS, DLPNO-Multilevel, CI-OPT
                                                   MM, QMMM, 2- and 3-layer-ONIOM, Crystal-QMMM,
                                                   LR-CPCM, SF, NACMEs, symmetry and pop. for TD-DFT,
                                                   nearIR, NL-DFT gradient (VV10), updates on ESD,
                                                   ML-optimized integration grids
   S Lehtola, MJT Oliveira, MAL Marques          : LibXC Library
   Liviu Ungur et al                             : ANISO software


 Your calculation uses the libint2 library for the computation of 2-el integrals
 For citations please refer to: http://libint.valeyev.net

 Your ORCA version has been built with support for libXC version: 5.2.2
 For citations please refer to: https://tddft.org/programs/libxc/

 This ORCA versions uses:
   CBLAS   interface :  Fast vector & matrix operations
   LAPACKE interface :  Fast linear algebra routines
   SCALAPACK package :  Parallel linear algebra routines
   Shared memory     :  Shared parallel matrices


================================================================================

----- Orbital basis set information -----
Your calculation utilizes the basis: aug-cc-pVTZ 
    H, B-Ne : Obtained from the ccRepo (grant-hill.group.shef.ac.uk/ccrepo) Feb. 2017
              R. A. Kendall, T. H. Dunning, Jr., R. J. Harrison, J. Chem. Phys. 96, 6796 (1992)
         He : Obtained from the ccRepo (grant-hill.group.shef.ac.uk/ccrepo) Feb. 2017
              D. E. Woon, T. H. Dunning, Jr., J. Chem. Phys. 100, 2975 (1994)
  Li-Be, Na : Obtained from the ccRepo (grant-hill.group.shef.ac.uk/ccrepo) Feb. 2017
              B. P. Prascher, D. E. Woon, K. A. Peterson, T. H. Dunning, Jr., A. K. Wilson, Theor. Chem. Acc. 128, 69 (2011)
         Mg : Obtained from the Peterson Research Group Website (tyr0.chem.wsu.edu/~kipeters) Feb. 2017
              B. P. Prascher, D. E. Woon, K. A. Peterson, T. H. Dunning, Jr., A. K. Wilson, Theor. Chem. Acc. 128, 69 (2011)
      Al-Ar : Obtained from the ccRepo (grant-hill.group.shef.ac.uk/ccrepo) Feb. 2017
              D. E. Woon, T. H. Dunning, Jr., J. Chem. Phys. 98, 1358 (1993)
      Sc-Zn : Obtained from the ccRepo (grant-hill.group.shef.ac.uk/ccrepo) Feb. 2017
              N. B. Balabanov, K. A. Peterson, J. Chem. Phys. 123, 064107 (2005)
              N. B. Balabanov, K. A. Peterson, J. Chem. Phys. 125, 074110 (2006)
      Ga-Kr : Obtained from the ccRepo (grant-hill.group.shef.ac.uk/ccrepo) Feb. 2017
              A. K. Wilson, D. E. Woon, K. A. Peterson, T. H. Dunning, Jr., J. Chem. Phys. 110, 7667 (1999)
     Ag, Au : Obtained from the Peterson Research Group Website (tyr0.chem.wsu.edu/~kipeters) Feb. 2017
              K. A. Peterson, C. Puzzarini, Theor. Chem. Acc. 114, 283 (2005)

----- AuxJ basis set information -----
----- AuxC basis set information -----
================================================================================
                                        WARNINGS
                       Please study these warnings very carefully!
================================================================================


WARNING: Post HF methods need fully converged wavefunctions
  ===> : Setting SCFConvForced true
         You can overwrite this default with %scf ConvForced false 


WARNING: MDCI localization with Augmented Hessian Foster-Boys
  ===> : Switching off randomization!

INFO   : the flag for use of the SHARK integral package has been found!

================================================================================
                                       INPUT FILE
================================================================================
NAME = frag2.inp
|  1> ! DLPNO-CCSD(T1) aug-cc-pVTZ DEFGRID3 RIJCOSX def2/J aug-cc-pVQZ/C verytightscf TightPNO 
|  2> 
|  3> %pal nprocs 4 end
|  4> %maxcore 4000
|  5> %scf maxiter 999 end
|  6> %basis auxj "autoaux" auxc "autoaux" autoauxlmax true end
|  7> %mdci TCutPNO 1e-6 printlevel 3 end
|  8> 
|  9> *xyz 0 1
| 10> O     2.482542995    -1.248988714     0.449488905
| 11> H     2.616828786    -1.798226083    -0.326968465
| 12> H     2.828107886    -0.362220961     0.204648083
| 13> *
| 14> 
| 15>                          ****END OF INPUT****
================================================================================

                       ****************************
                       * Single Point Calculation *
                       ****************************

---------------------------------
CARTESIAN COORDINATES (ANGSTROEM)
---------------------------------
  O      2.482543   -1.248989    0.449489
  H      2.616829   -1.798226   -0.326968
  H      2.828108   -0.362221    0.204648

----------------------------
CARTESIAN COORDINATES (A.U.)
----------------------------
  NO LB      ZA    FRAG     MASS         X           Y           Z
   0 O     8.0000    0    15.999    4.691326   -2.360247    0.849411
   1 H     1.0000    0     1.008    4.945090   -3.398155   -0.617881
   2 H     1.0000    0     1.008    5.344349   -0.684498    0.386729

--------------------------------
INTERNAL COORDINATES (ANGSTROEM)
--------------------------------
 O      0   0   0     0.000000000000     0.00000000     0.00000000
 H      1   0   0     0.960510493747     0.00000000     0.00000000
 H      1   2   0     0.982710114820   105.39205163     0.00000000

---------------------------
INTERNAL COORDINATES (A.U.)
---------------------------
 O      0   0   0     0.000000000000     0.00000000     0.00000000
 H      1   0   0     1.815101781939     0.00000000     0.00000000
 H      1   2   0     1.857052986045   105.39205163     0.00000000

---------------------
BASIS SET INFORMATION
---------------------
There are 2 groups of distinct atoms

 Group   1 Type O   : 19s6p3d2f contracted to 5s4p3d2f pattern {88111/3111/111/11}
 Group   2 Type H   : 6s3p2d contracted to 4s3p2d pattern {3111/111/11}

Atom   0O    basis set group =>   1
Atom   1H    basis set group =>   2
Atom   2H    basis set group =>   2
---------------------------------
AUXILIARY/J BASIS SET INFORMATION
---------------------------------
There are 2 groups of distinct atoms

 Group   1 Type O   : 16s14p13d7f5g3h2i contracted to 16s14p13d7f5g3h2i pattern {1111111111111111/11111111111111/1111111111111/1111111/11111/111/11}
 Group   2 Type H   : 14s6p5d4f3g contracted to 14s6p5d4f3g pattern {11111111111111/111111/11111/1111/111}

Atom   0O    basis set group =>   1
Atom   1H    basis set group =>   2
Atom   2H    basis set group =>   2
---------------------------------
AUXILIARY/C BASIS SET INFORMATION
---------------------------------
There are 2 groups of distinct atoms

 Group   1 Type O   : 16s14p13d7f5g3h2i contracted to 16s14p13d7f5g3h2i pattern {1111111111111111/11111111111111/1111111111111/1111111/11111/111/11}
 Group   2 Type H   : 14s6p5d4f3g contracted to 14s6p5d4f3g pattern {11111111111111/111111/11111/1111/111}

Atom   0O    basis set group =>   1
Atom   1H    basis set group =>   2
Atom   2H    basis set group =>   2


           ************************************************************
           *        Program running with 4 parallel MPI-processes     *
           *              working on a common directory               *
           ************************************************************
------------------------------------------------------------------------------
                           ORCA GTO INTEGRAL CALCULATION
                           -- RI-GTO INTEGRALS CHOSEN --
------------------------------------------------------------------------------
------------------------------------------------------------------------------
                   ___                                                        
                  /   \      - P O W E R E D   B Y -                         
                 /     \                                                     
                 |  |  |   _    _      __       _____    __    __             
                 |  |  |  | |  | |    /  \     |  _  \  |  |  /  |          
                  \  \/   | |  | |   /    \    | | | |  |  | /  /          
                 / \  \   | |__| |  /  /\  \   | |_| |  |  |/  /          
                |  |  |   |  __  | /  /__\  \  |    /   |      \           
                |  |  |   | |  | | |   __   |  |    \   |  |\   \          
                \     /   | |  | | |  |  |  |  | |\  \  |  | \   \       
                 \___/    |_|  |_| |__|  |__|  |_| \__\ |__|  \__/        
                                                                              
                      - O R C A' S   B I G   F R I E N D -                    
                                      &                                       
                       - I N T E G R A L  F E E D E R -                       
                                                                              
 v1 FN, 2020, v2 2021                                                         
------------------------------------------------------------------------------


Reading SHARK input file frag2.SHARKINP.tmp ... ok
Calculating pre-screening integrals         ... done (  0.0 sec) Dimension = 38
Calculating pre-screening integrals (ORCA)  ... done (  0.0 sec) Dimension = 32
Organizing shell pair data                  ... done (  0.0 sec)
Shell pair information
Total number of shell pairs                 ...       741
Shell pairs after pre-screening             ...       741
Total number of primitive shell pairs       ...       999
Primitive shell pairs kept                  ...       982
          la=0 lb=0:    190 shell pairs
          la=1 lb=0:    190 shell pairs
          la=1 lb=1:     55 shell pairs
          la=2 lb=0:    133 shell pairs
          la=2 lb=1:     70 shell pairs
          la=2 lb=2:     28 shell pairs
          la=3 lb=0:     38 shell pairs
          la=3 lb=1:     20 shell pairs
          la=3 lb=2:     14 shell pairs
          la=3 lb=3:      3 shell pairs

Calculating one electron integrals          ... done (  0.0 sec)
Calculating RI/J V-Matrix + Cholesky decomp.... done (  0.0 sec)
Calculating RI/C V-Matrix + Cholesky decomp.... done (  0.0 sec)
Calculating Nuclear repulsion               ... done (  0.0 sec) ENN=      9.057708822515 Eh

SHARK setup successfully completed in   0.2 seconds

Maximum memory used throughout the entire GTOINT-calculation: 25.5 MB


           ************************************************************
           *        Program running with 4 parallel MPI-processes     *
           *              working on a common directory               *
           ************************************************************
-------------------------------------------------------------------------------
                                 ORCA SCF
-------------------------------------------------------------------------------

------------
SCF SETTINGS
------------
Hamiltonian:
 Ab initio Hamiltonian  Method          .... Hartree-Fock(GTOs)
 RI-approximation to the Coulomb term is turned on
   Number of AuxJ basis functions       .... 500
   RIJ-COSX (HFX calculated with COS-X)).... on


General Settings:
 Integral files         IntName         .... frag2
 Hartree-Fock type      HFTyp           .... RHF
 Total Charge           Charge          ....    0
 Multiplicity           Mult            ....    1
 Number of Electrons    NEL             ....   10
 Basis Dimension        Dim             ....   92
 Nuclear Repulsion      ENuc            ....      9.0577088225 Eh

Convergence Acceleration:
 DIIS                   CNVDIIS         .... on
   Start iteration      DIISMaxIt       ....    12
   Startup error        DIISStart       ....  0.200000
   # of expansion vecs  DIISMaxEq       ....     5
   Bias factor          DIISBfac        ....   1.050
   Max. coefficient     DIISMaxC        ....  10.000
 Trust-Rad. Augm. Hess. CNVTRAH         .... auto
   Auto Start mean grad. ratio tolernc. ....  1.125000
   Auto Start start iteration           ....    20
   Auto Start num. interpolation iter.  ....    10
   Max. Number of Micro iterations      ....    24
   Max. Number of Macro iterations      .... Maxiter - #DIIS iter
   Max. Number of back steps            ....     5
   Number of Davidson start vectors     ....     2
   Converg. threshold I  (grad. norm)   ....   2.000e-06
   Converg. threshold II (energy diff.) ....   1.000e-09
   Grad. Scal. Fac. for Micro threshold ....   0.100
   Minimum threshold for Micro iter.    ....   1.000e-02
   NR start threshold (gradient norm)   ....   1.000e-04
   Initial trust radius                 ....   0.400
   Minimum AH scaling param. (alpha)    ....   1.000
   Maximum AH scaling param. (alpha)    .... 1000.000
   Inactive MOs                         .... canonicalized
   Orbital update algorithm             .... Taylor
   White noise on init. David. guess    .... on
   Maximum white noise                  ....   0.010
   Quad. conv. algorithm                .... NR
   Preconditioner                       .... approx. diagonal
 SOSCF                  CNVSOSCF        .... on
   Start iteration      SOSCFMaxIt      ....   150
   Startup grad/error   SOSCFStart      ....  0.003300
 Level Shifting         CNVShift        .... on
   Level shift para.    LevelShift      ....    0.2500
   Turn off err/grad.   ShiftErr        ....    0.0010
 Zerner damping         CNVZerner       .... off
 Static damping         CNVDamp         .... on
   Fraction old density DampFac         ....    0.7000
   Max. Damping (<1)    DampMax         ....    0.9800
   Min. Damping (>=0)   DampMin         ....    0.0000
   Turn off err/grad.   DampErr         ....    0.1000

SCF Procedure:
 Maximum # iterations   MaxIter         ....   999
 SCF integral mode      SCFMode         .... Direct
   Integral package                     .... SHARK and LIBINT hybrid scheme
 Reset frequency        DirectResetFreq ....    20
 Integral Threshold     Thresh          ....  1.000e-12 Eh
 Primitive CutOff       TCut            ....  1.000e-14 Eh

Convergence Tolerance:
 Convergence Check Mode ConvCheckMode   .... Total+1el-Energy
 Convergence forced     ConvForced      .... 1
 Energy Change          TolE            ....  1.000e-09 Eh
 1-El. energy change                    ....  1.000e-06 Eh
 Orbital Gradient       TolG            ....  2.000e-06
 Orbital Rotation angle TolX            ....  2.000e-06
 DIIS Error             TolErr          ....  1.000e-08


Diagonalization of the overlap matrix:
Smallest eigenvalue                        ... 3.914e-04
Time for diagonalization                   ...    0.006 sec
Threshold for overlap eigenvalues          ... 1.000e-08
Number of eigenvalues below threshold      ... 0
Time for construction of square roots      ...    0.007 sec
Total time needed                          ...    0.014 sec

Time for model grid setup =    0.009 sec

------------------------------
INITIAL GUESS: MODEL POTENTIAL
------------------------------
Loading Hartree-Fock densities                     ... done
Calculating cut-offs                               ... done
Initializing the effective Hamiltonian             ... done
Setting up the integral package (SHARK)            ... done
Starting the Coulomb interaction                   ... done (   0.0 sec)
Reading the grid                                   ... done
Mapping shells                                     ... done
Starting the XC term evaluation                    ... done (   0.0 sec)
Transforming the Hamiltonian                       ... done (   0.0 sec)
Diagonalizing the Hamiltonian                      ... done (   0.0 sec)
Back transforming the eigenvectors                 ... done (   0.0 sec)
Now organizing SCF variables                       ... done
                      ------------------
                      INITIAL GUESS DONE (   0.0 sec)
                      ------------------
--------------------
COSX GRID GENERATION
--------------------

GRIDX 1
-------
General Integration Accuracy     IntAcc      ... 4.020
Radial Grid Type                 RadialGrid  ... OptM3 with GC (2021)
Angular Grid (max. ang.)         AngularGrid ... 2 (Lebedev-110)
Angular grid pruning method      GridPruning ... 4 (adaptive)
Weight generation scheme         WeightScheme... Becke
Basis function cutoff            BFCut       ... 1.0000e-12
Integration weight cutoff        WCut        ... 1.0000e-14
Angular grids for H and He will be reduced by one unit
Partially contracted basis set               ... on
Rotationally invariant grid construction     ... off

Total number of grid points                  ...     4166
Total number of batches                      ...       67
Average number of points per batch           ...       62
Average number of grid points per atom       ...     1389
UseSFitting                                  ... on

GRIDX 2
-------
General Integration Accuracy     IntAcc      ... 4.338
Radial Grid Type                 RadialGrid  ... OptM3 with GC (2021)
Angular Grid (max. ang.)         AngularGrid ... 3 (Lebedev-194)
Angular grid pruning method      GridPruning ... 4 (adaptive)
Weight generation scheme         WeightScheme... Becke
Basis function cutoff            BFCut       ... 1.0000e-12
Integration weight cutoff        WCut        ... 1.0000e-14
Angular grids for H and He will be reduced by one unit
Partially contracted basis set               ... on
Rotationally invariant grid construction     ... off

Total number of grid points                  ...     9554
Total number of batches                      ...      151
Average number of points per batch           ...       63
Average number of grid points per atom       ...     3185
UseSFitting                                  ... on

GRIDX 3
-------
General Integration Accuracy     IntAcc      ... 4.871
Radial Grid Type                 RadialGrid  ... OptM3 with GC (2021)
Angular Grid (max. ang.)         AngularGrid ... 4 (Lebedev-302)
Angular grid pruning method      GridPruning ... 4 (adaptive)
Weight generation scheme         WeightScheme... Becke
Basis function cutoff            BFCut       ... 1.0000e-12
Integration weight cutoff        WCut        ... 1.0000e-14
Angular grids for H and He will be reduced by one unit
Partially contracted basis set               ... on
Rotationally invariant grid construction     ... off

Total number of grid points                  ...    18714
Total number of batches                      ...      293
Average number of points per batch           ...       63
Average number of grid points per atom       ...     6238
UseSFitting                                  ... on

Time for X-Grid setup             =    0.148 sec

 re-compute Schwartz prescreening matrix in partially contracted basis (1) ...done (   0.043 sec)
--------------
SCF ITERATIONS
--------------
ITER       Energy         Delta-E        Max-DP      RMS-DP      [F,P]     Damp
               ***  Starting incremental Fock matrix formation  ***
  0    -75.9581565850   0.000000000000 0.02736824  0.00099580  0.3814149 0.7000
  1    -75.9985302339  -0.040373648917 0.01786117  0.00066889  0.2233099 0.7000
                               ***Turning on DIIS***
  2    -76.0193854375  -0.020855203538 0.01147290  0.00036780  0.1189538 0.7000
  3    -76.1746555749  -0.155270137444 0.02956326  0.00068875  0.0849651 0.0000
  4    -76.0346262174   0.140029357487 0.00478131  0.00012658  0.0132218 0.0000
                      *** Initiating the SOSCF procedure ***
                           *** Shutting down DIIS ***
                      *** Re-Reading the Fockian *** 
                      *** Removing any level shift *** 
ITER       Energy         Delta-E        Max-DP      RMS-DP   
  5    -76.0587320093  -0.024105791825 0.00147875  0.00005270
               *** Restarting incremental Fock matrix formation ***
  6    -76.0588622581  -0.000130248804 0.00336839  0.00009036
  7    -76.0588680677  -0.000005809662 0.00116044  0.00002397
  8    -76.0588689219  -0.000000854188 0.00019846  0.00000618
  9    -76.0588692562  -0.000000334291 0.00007146  0.00000221
 10    -76.0588693498  -0.000000093636 0.00001571  0.00000036
 11    -76.0588693468   0.000000003043 0.00000244  0.00000011
 12    -76.0588693452   0.000000001627 0.00000109  0.00000003
                 **** Energy Check signals convergence ****
              ***Rediagonalizing the Fockian in SOSCF/NRSCF***

               *****************************************************
               *                     SUCCESS                       *
               *           SCF CONVERGED AFTER  13 CYCLES          *
               *****************************************************

Old exchange energy                            =     -8.928279589 Eh
New exchange energy                            =     -8.928478455 Eh
Exchange energy change after final integration =     -0.000198865 Eh
Total energy after final integration           =    -76.059068210 Eh
Final COS-X integration done in                =     0.286 sec

----------------
TOTAL SCF ENERGY
----------------

Total Energy       :          -76.05906821 Eh           -2069.67247 eV

Components:
Nuclear Repulsion  :            9.05770882 Eh             246.47279 eV
Electronic Energy  :          -85.11677703 Eh           -2316.14525 eV
One Electron Energy:         -122.80119203 Eh           -3341.59032 eV
Two Electron Energy:           37.68441500 Eh            1025.44506 eV
Max COSX asymmetry :            0.00000032 Eh               0.00001 eV

Virial components:
Potential Energy   :         -151.96468416 Eh           -4135.16928 eV
Kinetic Energy     :           75.90561595 Eh            2065.49682 eV
Virial Ratio       :            2.00202162


---------------
SCF CONVERGENCE
---------------

  Last Energy change         ...    4.8826e-10  Tolerance :   1.0000e-09
  Last MAX-Density change    ...    8.8818e-16  Tolerance :   1.0000e-08
  Last RMS-Density change    ...    1.2911e-17  Tolerance :   1.0000e-09

             **** THE GBW FILE WAS UPDATED (frag2.gbw) ****
             **** DENSITY frag2.scfp WAS UPDATED ****
             **** ENERGY FILE WAS UPDATED (frag2.en.tmp) ****
             **** THE GBW FILE WAS UPDATED (frag2.gbw) ****
             **** DENSITY frag2.scfp WAS UPDATED ****
             **** ENERGY FILE WAS UPDATED (frag2.en.tmp) ****
----------------
ORBITAL ENERGIES
----------------

  NO   OCC          E(Eh)            E(eV) 
   0   2.0000     -20.569236      -559.7174 
   1   2.0000      -1.345714       -36.6188 
   2   2.0000      -0.711736       -19.3673 
   3   2.0000      -0.580438       -15.7945 
   4   2.0000      -0.508857       -13.8467 
   5   0.0000       0.029307         0.7975 
   6   0.0000       0.047573         1.2945 
   7   0.0000       0.136007         3.7009 
   8   0.0000       0.159079         4.3288 
   9   0.0000       0.174461         4.7473 
  10   0.0000       0.182803         4.9743 
  11   0.0000       0.226561         6.1650 
  12   0.0000       0.244278         6.6472 
  13   0.0000       0.264822         7.2062 
  14   0.0000       0.300850         8.1866 
  15   0.0000       0.310570         8.4511 
  16   0.0000       0.365205         9.9377 
  17   0.0000       0.434846        11.8328 
  18   0.0000       0.464363        12.6360 
  19   0.0000       0.599385        16.3101 
  20   0.0000       0.656124        17.8540 
  21   0.0000       0.708569        19.2811 
  22   0.0000       0.721834        19.6421 
  23   0.0000       0.732085        19.9210 
  24   0.0000       0.825803        22.4713 
  25   0.0000       0.844142        22.9703 
  26   0.0000       0.893520        24.3139 
  27   0.0000       0.910132        24.7660 
  28   0.0000       0.920333        25.0435 
  29   0.0000       0.921354        25.0713 
  30   0.0000       0.928855        25.2754 
  31   0.0000       0.963058        26.2062 
  32   0.0000       1.016325        27.6556 
  33   0.0000       1.040926        28.3250 
  34   0.0000       1.081441        29.4275 
  35   0.0000       1.107246        30.1297 
  36   0.0000       1.172279        31.8993 
  37   0.0000       1.176128        32.0041 
  38   0.0000       1.264929        34.4205 
  39   0.0000       1.506860        41.0037 
  40   0.0000       1.546086        42.0711 
  41   0.0000       1.580068        42.9958 
  42   0.0000       1.799219        48.9592 
  43   0.0000       1.809184        49.2304 
  44   0.0000       1.972705        53.6800 
  45   0.0000       2.106795        57.3288 
  46   0.0000       2.260328        61.5066 
  47   0.0000       2.313842        62.9629 
  48   0.0000       2.326787        63.3151 
  49   0.0000       2.414439        65.7002 
  50   0.0000       2.416223        65.7488 
  51   0.0000       2.439981        66.3953 
  52   0.0000       2.481519        67.5256 
  53   0.0000       2.688744        73.1644 
  54   0.0000       2.701801        73.5197 
  55   0.0000       2.755772        74.9884 
  56   0.0000       2.825717        76.8917 
  57   0.0000       2.877177        78.2920 
  58   0.0000       3.628386        98.7334 
  59   0.0000       3.736257       101.6687 
  60   0.0000       4.003489       108.9405 
  61   0.0000       4.072032       110.8056 
  62   0.0000       4.169389       113.4548 
  63   0.0000       4.226404       115.0063 
  64   0.0000       4.296040       116.9012 
  65   0.0000       4.372624       118.9851 
  66   0.0000       4.387439       119.3883 
  67   0.0000       4.392783       119.5337 
  68   0.0000       4.500218       122.4571 
  69   0.0000       4.702214       127.9537 
  70   0.0000       4.802511       130.6830 
  71   0.0000       5.106665       138.9594 
  72   0.0000       5.121063       139.3512 
  73   0.0000       5.244717       142.7160 
  74   0.0000       5.286699       143.8584 
  75   0.0000       5.484681       149.2458 
  76   0.0000       5.659880       154.0132 
  77   0.0000       6.148155       167.2998 
  78   0.0000       6.522081       177.4749 
  79   0.0000       6.705363       182.4622 
  80   0.0000       6.861911       186.7221 
  81   0.0000       7.119250       193.7246 
  82   0.0000       7.235884       196.8984 
  83   0.0000       7.290016       198.3714 
  84   0.0000       7.293852       198.4758 
  85   0.0000       7.317413       199.1169 
  86   0.0000       7.356055       200.1684 
  87   0.0000       7.505197       204.2268 
  88   0.0000       7.870105       214.1564 
  89   0.0000       7.904561       215.0940 
  90   0.0000       8.732379       237.6201 
  91   0.0000      15.406855       419.2418 

                    ********************************
                    * MULLIKEN POPULATION ANALYSIS *
                    ********************************

-----------------------
MULLIKEN ATOMIC CHARGES
-----------------------
   0 O :   -0.461824
   1 H :    0.219352
   2 H :    0.242472
Sum of atomic charges:    0.0000000

--------------------------------
MULLIKEN REDUCED ORBITAL CHARGES
--------------------------------
  0 O s       :     3.874739  s :     3.874739
      pz      :     1.488049  p :     4.567337
      px      :     1.801651
      py      :     1.277637
      dz2     :     0.005336  d :     0.018367
      dxz     :     0.002429
      dyz     :     0.006825
      dx2y2   :     0.000933
      dxy     :     0.002845
      f0      :     0.000087  f :     0.001381
      f+1     :     0.000108
      f-1     :     0.000171
      f+2     :     0.000175
      f-2     :     0.000200
      f+3     :     0.000412
      f-3     :     0.000228
  1 H s       :     0.661246  s :     0.661246
      pz      :     0.024331  p :     0.100321
      px      :     0.046806
      py      :     0.029183
      dz2     :     0.006355  d :     0.019081
      dxz     :     0.005638
      dyz     :     0.000848
      dx2y2   :     0.002250
      dxy     :     0.003990
  2 H s       :     0.647187  s :     0.647187
      pz      :     0.030444  p :     0.093070
      px      :     0.041884
      py      :     0.020742
      dz2     :     0.000495  d :     0.017271
      dxz     :     0.000622
      dyz     :     0.006546
      dx2y2   :     0.003882
      dxy     :     0.005726


                     *******************************
                     * LOEWDIN POPULATION ANALYSIS *
                     *******************************

----------------------
LOEWDIN ATOMIC CHARGES
----------------------
   0 O :    1.000078
   1 H :   -0.523464
   2 H :   -0.476614

-------------------------------
LOEWDIN REDUCED ORBITAL CHARGES
-------------------------------
  0 O s       :     3.019175  s :     3.019175
      pz      :     1.313546  p :     3.895624
      px      :     1.409034
      py      :     1.173044
      dz2     :     0.014753  d :     0.070563
      dxz     :     0.001092
      dyz     :     0.029763
      dx2y2   :     0.014226
      dxy     :     0.010729
      f0      :     0.001549  f :     0.014560
      f+1     :     0.000559
      f-1     :     0.005199
      f+2     :     0.001975
      f-2     :     0.001753
      f+3     :     0.002864
      f-3     :     0.000662
  1 H s       :     0.593040  s :     0.593040
      pz      :     0.230587  p :     0.561413
      px      :     0.167168
      py      :     0.163658
      dz2     :     0.117709  d :     0.369011
      dxz     :     0.079834
      dyz     :     0.083170
      dx2y2   :     0.045791
      dxy     :     0.042506
  2 H s       :     0.583738  s :     0.583738
      pz      :     0.150019  p :     0.532900
      px      :     0.169618
      py      :     0.213263
      dz2     :     0.032349  d :     0.359977
      dxz     :     0.019833
      dyz     :     0.110086
      dx2y2   :     0.098182
      dxy     :     0.099527


                      *****************************
                      * MAYER POPULATION ANALYSIS *
                      *****************************

  NA   - Mulliken gross atomic population
  ZA   - Total nuclear charge
  QA   - Mulliken gross atomic charge
  VA   - Mayer's total valence
  BVA  - Mayer's bonded valence
  FA   - Mayer's free valence

  ATOM       NA         ZA         QA         VA         BVA        FA
  0 O      8.4618     8.0000    -0.4618     1.9808     1.9808     0.0000
  1 H      0.7806     1.0000     0.2194     1.0367     1.0367     0.0000
  2 H      0.7575     1.0000     0.2425     1.0156     1.0156    -0.0000

  Mayer bond orders larger than 0.100000
B(  0-O ,  1-H ) :   1.0010 B(  0-O ,  2-H ) :   0.9798 

-------
TIMINGS
-------

Total SCF time: 0 days 0 hours 0 min 2 sec 

Total time                  ....       2.490 sec
Sum of individual times     ....       3.997 sec  (160.5%)

Fock matrix formation       ....       3.729 sec  (149.8%)
  Split-RI-J                ....       0.456 sec  ( 12.2% of F)
  Chain of spheres X        ....       1.600 sec  ( 42.9% of F)
Diagonalization             ....       0.020 sec  (  0.8%)
Density matrix formation    ....       0.002 sec  (  0.1%)
Population analysis         ....       0.003 sec  (  0.1%)
Initial guess               ....       0.010 sec  (  0.4%)
Orbital Transformation      ....       0.000 sec  (  0.0%)
Orbital Orthonormalization  ....       0.000 sec  (  0.0%)
DIIS solution               ....       0.038 sec  (  1.5%)
SOSCF solution              ....       0.038 sec  (  1.5%)

Maximum memory used throughout the entire SCF-calculation: 67.9 MB


           ************************************************************
           *        Program running with 4 parallel MPI-processes     *
           *              working on a common directory               *
           ************************************************************


--------------------------------------------------------------------------------
                             ORCA-MATRIX DRIVEN CI
--------------------------------------------------------------------------------


Wavefunction type
-----------------
Correlation treatment                      ...      CCSD     
Single excitations                         ... ON
Orbital optimization                       ... OFF
Calculation of Z vector                    ... OFF
Calculation of Brueckner orbitals          ... OFF
Perturbative triple excitations            ... ON
Calculation of F12 correction              ... OFF
Frozen core treatment                      ... chemical core (2 el)
Reference Wavefunction                     ... RHF
  Internal Orbitals:     1 ...    4 (  4 MO's/  8 electrons)
  Virtual  Orbitals:     5 ...   91 ( 87 MO's              )
Number of AO's                             ...     92
Number of electrons                        ...     10
Number of correlated electrons             ...      8

Algorithmic settings
--------------------
Integral transformation                    ... All integrals via the RI transformation
K(C) Formation                             ... RI-DLPNO
   PNO-Integral Storage                    ... ON DISK
   PNO occupation number cut-off           ... 1.000e-06
   Singles PNO occupation number cut-off   ... 3.000e-08
   PNO Mulliken prescreening cut-off       ... 1.000e-03
   Domain cut-off (Mulliken population)    ... 1.000e-03
   PNO Normalization                       ...    1
Maximum number of iterations               ...        50
Convergence tolerance (max. residuum)      ... 1.000e-06
Level shift for amplitude update           ... 2.000e-01
Maximum number of DIIS vectors             ...         7
DIIS turned on at iteration                ...         0
Damping before turning on DIIS             ...     0.500
Damping after turning on DIIS              ...     0.000
Pair specific amplitude update             ... OFF
Natural orbital iterations                 ... OFF
Perturbative natural orbital generation    ... OFF
Printlevel                                 ... 3

Singles Fock matrix elements calculated using PNOs.

Memory handling:
----------------
Maximum memory for working arrays          ...   4000 MB
Data storage in matrix containers          ... UNCOMPRESSED
Data type for integral storage             ... DOUBLE
In-Core Storage of quantities:
   Amplitudes+Sigma Vector      ... NO
   J+K operators                ... NO
   DIIS vectors                 ... NO
   3-external integrals         ... NO
   4-external integrals         ... NO

Localization treatment:
-----------------------
Localization option                        ...    6
Localization threshhold                    ... -1.0e+00
Using relative localization threshhold     ... 1.0e-08
Neglect threshold for strong pairs         ... 1.000e-05 Eh
Prescreening threshold for very weak pairs ... 1.000e-07 Eh

Initializing the integral package          ... done
Localizing the valence orbitals
Localizing the valence orbitals
------------------------------------------------------------------------------
                           ORCA ORBITAL LOCALIZATION
------------------------------------------------------------------------------

Input orbitals are from                  ... frag2.gbw
Output orbitals are to                   ... frag2.loc
Max. number of iterations                ... 128
Localizations seeded randomly            ... off
Convergence tolerance                    ... 2.000e-07
Using relative localization threshhold   ... 1.000e-08
Threshold for strong local MOs           ... 9.500e-01
Threshold for bond MOs                   ... 8.500e-01
Operator                                 ... 0
Orbital range for localization           ... 1 to 4
Localization criterion                   ... FOSTER-BOYS (AUGMENTED HESSIAN)
Doing the dipole integrals     ... o.k.
Initial value of the localization sum :   114.366902
ITERATION   0 : L=  116.2289075239 DL=  1.86e+00 (AVERGE_DL)=    0.5570765983 
ITERATION   1 : L=  116.4436644880 DL=  2.15e-01 (AVERGE_DL)=    0.1891899240 
ITERATION   2 : L=  116.4884410826 DL=  4.48e-02 (AVERGE_DL)=    0.0863873010 
ITERATION   3 : L=  116.4927506727 DL=  4.31e-03 (AVERGE_DL)=    0.0268004667 
ITERATION   4 : L=  116.4932677107 DL=  5.17e-04 (AVERGE_DL)=    0.0092829412 
ITERATION   5 : L=  116.4933273444 DL=  5.96e-05 (AVERGE_DL)=    0.0031526091 
ITERATION   6 : L=  116.4933337529 DL=  6.41e-06 (AVERGE_DL)=    0.0010334817 
ITERATION   7 : L=  116.4933344049 DL=  6.52e-07 (AVERGE_DL)=    0.0003296524 
LOCALIZATION SUM CONVERGED

------------------------------------------------------
AUGMENTED HESSIAN OPTIMIZATION OF FOSTER-BOYS ORBITALS
------------------------------------------------------

Spin operator:           0
Orbital window:          1 to 4
Number of iterations:    128
Gradient tolerance:      2.000e-07
Number of pairs:         6
Davidson threshold:      2000
Diagonalization method:  LAPACK
Iter:    0   L: 116.4933344049   Grad. norm: 4.858041e-04
   *** Likely close to a maximum now. ***
       Augmented Hessian eigenvalues:  1.41e-07 -1.28e+00 -3.21e+00 -4.70e+00 ... 
Iter:    1   L: 116.4933344755   Grad. norm: 6.487250e-08
LOCALIZATION HAS CONVERGED.

Eigenvalues of the Hessian:
  0 -1.279e+00
  1 -3.210e+00
  2 -4.697e+00
  3 -5.336e+00
  4 -7.201e+00
  5 -9.685e+00


--------------------------------------------------------------------------------
                    LOCALIZED MOLECULAR ORBITAL COMPOSITIONS
--------------------------------------------------------------------------------

The Mulliken populations for each LMO on each atom are computed
The LMO`s will be ordered according to atom index and type
  (A) Strongly localized MO`s have populations of >=0.950 on one atom
  (B) Two center bond orbitals have populations of >=0.850 on two atoms
  (C) Other MO`s are considered to be `delocalized`

FOUND  -   2 strongly local MO`s
       -   2 two center bond MO`s
       -   0 significantly delocalized MO`s

Rather strongly localized orbitals:
MO   2:   0O  -   1.001568
MO   1:   0O  -   1.001710
Bond-like localized orbitals:
MO   4:   2H  -   0.376570  and   0O  -   0.618782
MO   3:   1H  -   0.386452  and   0O  -   0.609566
Localized MO's were stored in: frag2.loc

Localizing the core orbitals
------------------------------------------------------------------------------
                           ORCA ORBITAL LOCALIZATION
------------------------------------------------------------------------------

Input orbitals are from                  ... frag2.loc
Output orbitals are to                   ... frag2.loc
Max. number of iterations                ... 128
Localizations seeded randomly            ... off
Convergence tolerance                    ... 2.000e-07
Using relative localization threshhold   ... 1.000e-08
Threshold for strong local MOs           ... 9.500e-01
Threshold for bond MOs                   ... 8.500e-01
Operator                                 ... 0
Orbital range for localization           ... 0 to 0
Localization criterion                   ... FOSTER-BOYS (AUGMENTED HESSIAN)
Doing the dipole integrals     ... o.k.

ORCA_LOC: ONLY ONE ORBITAL - SKIPPING LOCALIZATION


--------------------------------------------------------------------------------
                    LOCALIZED MOLECULAR ORBITAL COMPOSITIONS
--------------------------------------------------------------------------------

The Mulliken populations for each LMO on each atom are computed
The LMO`s will be ordered according to atom index and type
  (A) Strongly localized MO`s have populations of >=0.950 on one atom
  (B) Two center bond orbitals have populations of >=0.850 on two atoms
  (C) Other MO`s are considered to be `delocalized`

FOUND  -   1 strongly local MO`s
       -   0 two center bond MO`s
       -   0 significantly delocalized MO`s

Rather strongly localized orbitals:
MO   0:   0O  -   0.999286
Localized MO's were stored in: frag2.loc

Warning: reference  - re-canonicalizations have been set to INT 1 VIRT 1
Warning: internal orbitals are localized - no re-canonicalization of internal orbitals
Warning: UsePNO is turned on - no re-canonicalization of internal and virtual orbitals

--------------------------
CLOSED-SHELL FOCK OPERATOR
--------------------------

Restoring SHARK [2] ... ok
Entering RIJCOSX section for the Fock matrix
Trying to retrieve the full J-matrix              ... done
Updating the Fock matrix                          ... done
Making the frozen core Coulomb matrix             ... SHARKdone
Retrieving the full K-matrix                      ... done
Calculating the frozen core K-matrix              ... done
Updating the Fock matrix                          ... done
Time needed for Fock operator              ...            0.350 sec
Reference energy                           ...    -76.059068232

--------------
DLPNO SETTINGS (2015 fully linear scaling implementation)
--------------

TCutMKN:           1.000e-03
TCutPAO:           1.000e-03
TCutPNO:           1.000e-06
TCutPNOSingles:    3.000e-08
TCutEN:            9.700e-01
TCutPAOExt:        1.000e-01
TCutPairs:         1.000e-05
TCutPre:           1.000e-07
TCutOSV:           1.000e-06
TCutDOij:          1.000e-05
TCutDO:            5.000e-03
TCutC:             1.000e-04
TCutCPAO:          1.000e-03
TCutCMO:           1.000e-03
TScaleDOMP2PreScr: 2.000e+00
TScaleMKNMP2PreScr:1.000e+01
TScalePNOMP2PreScr:1.000e+00
PAO overlap thresh 1.000e-08
Using PNOs for Singles Fock computation
Use new domains
Use fully linear algorithm
TCutTNO:           1.000e-09
TCutMP2Pairs:      1.000e-06
TCutDOStrong:      1.000e-02
TCutDOWeak:        2.000e-02
TCutMKNStrong:     1.000e-02
TCutMKNWeak:       1.000e-01
NTCutTNO:          1

--------------------------
Mulliken population of the LMOs            ... ok
Performing proximity check                 ... 
 found 2 problematic atoms
   => In all likelyhood your results will be entirely fine!
   => In case you don't want to trust it, decrease TCutMKN to below 0.00038834.
   => but note that this is probably not necessary but will increase execution time
Calculating differential overlap integrals ... ok

--------------------------
ELECTRON PAIR PRESCREENING
--------------------------

Dipole-based pair screening          .... used

   TCutDOij = 1.000000e-05
   TCutPre  = 1.000000e-07
   .... Finished loop over pairs
Total time spent in the prescreening                  ...     0.000 sec
Time for pair-prescreening                            ...     0.000 sec
Time for pairlist organization                        ...     0.000 sec
Number of pairs skipped by pre-screening              ... 0
sum of pair energies estimated for screened out pairs ...       0.000000000000 Eh
Thresholds for map construction and integral transformation for crude MP2:
   TCutMKN                    ...     1.0e-02
   TCutDO                     ...     1.0e-02
   TCutPairs                  ...     1.0e-05
   TCutPNO_CrudeMP2           ...     1.0e-06
   TCutPNOSingles_CrudeMP2    ...     3.0e-08
--------------------------------
LOCAL RI TRANSFORMATION (IAVPAO)
--------------------------------

Orbital window:       1 to 4
Number of PAOs:      92
Basis functions:     92 (32 shells)
Aux. functions:     500 (124 shells)
Use SHARK:           on

Processing maps (0.0 sec)
Average map sizes:
   Aux shells -> MOs               4.0
   Aux shells -> PAOs             92.0
   MOs        -> AO shells        32.0
   PAOs       -> AO shells        32.0

Calculating integrals (0.1 sec, 1.410 MB)
Sorting integrals (0.0 sec, 1.404 MB)
Total time for the integral transformation: 0.1 sec
--------------------------------
INITIAL GUESS AND PNO GENERATION
--------------------------------

PNO truncation parameters                   .... 
    PAOOverlapThresh   =        1.000e-08

    TCutPairs          =        1.000e-05
    TCutPNO            =        1.000e-06
    TCutPNOSingles     =        3.000e-08
    TCutMP2Pairs       =        1.000e-06
    TCutMKN            =        1.000e-02
    TCutDO             =        1.000e-02

Pair selection                          .... not used
Type of local MP2 treatment                 .... semi-local MP2
Strategy for PNO selection                  .... occupation number selection
Pair density normalization                  .... MP2 norm
Spin component scaling                      .... not used

   .... Finished loop over pairs
Making pair pair interaction lists          ... 
Pair pair interaction statistics
Nr. of pairs:                        10
Nr. of Singles:                       4
Average (per pair domain)               (Total):
Atoms:                              3.0 (3)
PNOs:                              12.0
PAOs:                   92.0 (92)
Aux functions:                    365.6 (500)
AuxAtoms:                           1.8 (3)
EXT1 basis functions:              92.0 (92)
Interacting Pairs:                  3.0 (10)
Interacting Pairs - Singles:        4.0 (4)
Average (per Single domain):
Atoms (Singles):                    3.0 (3)
PNOs (Singles):                    61.0
Basis functions (Singles):         92.0 (92)
Interacting Singles - Singles:      4.0 (4)
Interacting Singles - Pairs:       10.0 (10)
done

                       ===========================
                         10 OF   10 PAIRS ARE KEPT CCSD PAIRS
                          0 OF   10 PAIRS ARE KEPT MP2 PAIRS FOR (T)
                          0 OF   10 PAIRS ARE SKIPPED
                       ===========================

Total time spent in the initial guess                 ...     0.029 sec
Pair domain construction                              ...     0.000 sec
Time for calculating MP2 Guess in PAOs                ...     0.011 sec
     Time for Local metric generation                 ...     0.000 sec
     Time for Local Kij generation                    ...     0.007 sec
     Time for Local MP2 calculation                   ...     0.000 sec
     Time for LMP2 iterations                         ...     0.000 sec
          prep and other time                         ...     0.000 sec
          Time for sigma                              ...     0.000 sec (    0.000 sec in k-loop)
          Time for DIIS                               ...     0.000 sec
          Time for Update                             ...     0.000 sec
      Time for LMP2 I/O                               ...     0.000 sec
      Time for Initial PNO                            ...     0.000 sec
Time for generating PNOs                              ...     0.001 sec
Time for pairlist organization                        ...     0.000 sec
Time for pair-pair interaction organization           ...     0.000 sec
Size of the domain VM**-1/2 file                      ...         0 MB
SL-MP2 correlation energy (all non-screened pairs)    ...      -0.261289601629 Eh

Initial PNO correlation energy                        ...      -0.260807092665 Eh
sum of pair energies prescreened and skipped MP2 pairs...       0.000000000000 Eh
sum of pair energies of crude MP2 skipped pairs only  ...       0.000000000000 Eh
sum of MP2 pair energies for pairs that were not kept ...       0.000000000000 Eh
sum of PNO error estimates for the kept pairs         ...      -0.000482508964 Eh
                                                          --------------------
sum of all corrections                                         -0.000482508964
Initial total correlation energy                               -0.261289601629
Thresholds for map construction and integral transformation for fine MP2 and CCSD(T) calculation:
   TCutMKN   ...     1.0e-03
   TCutDO    ...     5.0e-03
   TCutPairs ...     1.0e-05
   TCutCMO   ...     1.0e-03
   TCutCPAO  ...     1.0e-03

Thresholds for map construction and integral transformation for strong Triples:
   TCutMKN   ...     1.0e-02
   TCutDO    ...     1.0e-02
   TCutCMO   ...     1.0e-03
   TCutCPAO  ...     1.0e-03

Thresholds for map construction and integral transformation for weak Triples:
   TCutMKN   ...     1.0e-01
   TCutDO    ...     2.0e-02
   TCutCMO   ...     1.0e-03
   TCutCPAO  ...     1.0e-03

--------------------------------
LOCAL RI TRANSFORMATION (IAVPAO)
--------------------------------

Orbital window:       1 to 4
Number of PAOs:      92
Basis functions:     92 (32 shells)
Aux. functions:     500 (124 shells)
Use SHARK:           on

Processing maps (0.0 sec)
Average map sizes:
   Aux shells -> MOs               4.0
   Aux shells -> PAOs             92.0
   MOs        -> AO shells        32.0
   PAOs       -> AO shells        32.0

Calculating integrals (0.1 sec, 1.410 MB)
Sorting integrals (0.0 sec, 1.404 MB)
Total time for the integral transformation: 0.1 sec
--------------------------------
INITIAL GUESS AND PNO GENERATION
--------------------------------

PNO truncation parameters                   .... 
    ScaleTCutPNO       =        1.000e-02
    PAOOverlapThresh   =        1.000e-08

    TCutPairs          =        1.000e-05
    TCutPNO            =        1.000e-06
    TCutPNOSingles     =        3.000e-08
    TCutMP2Pairs       =        1.000e-06
    TCutMKN            =        1.000e-03
    TCutDO             =        5.000e-03

Pair selection                          .... not used
Type of local MP2 treatment                 .... full local PMP2
Strategy for PNO selection                  .... occupation number selection
Pair density normalization                  .... MP2 norm
Spin component scaling                      .... not used

PASS-1: Formation of initial guess LMP2 amplitudes
Initial amplitudes guess done. Entering LMP2 iteration loop:
   Max. no of iterations          ...  50
   Energy convergence tolerance   ...    1.0e-07
   Residual convergence tolerance ...    5.0e-07
   Fock matrix cutoff             ...    1.0e-05 Eh
   DIIS convergence acceleration parameters:
        Max # vectors in DIIS     ... 7
        Start iteration of DIIS   ... 0
        Levelshift                ... 2.000e-01
        Damping factor 1          ... 5.000e-01
        Damping factor 2          ... 1.000e+00
   L-MP2 PNO cut-off              ...   1.0e-08
   L-MP2 PNO cut-off (core)       ...   1.0e-10
60 of 60 terms in k-loop evaluated.

                           *** Turning on DIIS ***
LMP2-Iter=   0:  ELMP2= -0.266273287307  DE=   5.0e-03 RMAX=   5.2e-03
LMP2-Iter=   1:  ELMP2= -0.268975876703  DE=   2.7e-03 RMAX=   2.8e-03
LMP2-Iter=   2:  ELMP2= -0.269370642027  DE=   3.9e-04 RMAX=   5.4e-04
LMP2-Iter=   3:  ELMP2= -0.269422332992  DE=   5.2e-05 RMAX=   1.6e-04
LMP2-Iter=   4:  ELMP2= -0.269426210915  DE=   3.9e-06 RMAX=   1.9e-05
LMP2-Iter=   5:  ELMP2= -0.269426173523  DE=   3.7e-08 RMAX=   5.0e-06
LMP2-Iter=   6:  ELMP2= -0.269426159983  DE=   1.4e-08 RMAX=   4.0e-07
LMP2-Iter=   7:  ELMP2= -0.269426156818  DE=   3.2e-09 RMAX=   1.0e-07
LMP2-Iter=   8:  ELMP2= -0.269426158208  DE=   1.4e-09 RMAX=   1.1e-08 => CONVERGED
PASS-2: Formation of Pair natural orbitals
   .... Finished loop over pairs
Process 1:   (    3,     1):  99.936536884138 %
Process 1:   (    3,     2):  99.936535062773 %
Process 1:   (    3,     3):  99.942536637799 %
Process 1:   (    3):  99.998319568566 % (IJ)
Process 2:   (    4,     1):  99.935740249302 %
Process 2:   (    4,     2):  99.935738432893 %
Process 2:   (    4,     3):  99.916699474629 %
Process 3:   (    4,     4):  99.949385181852 %
Process 3:   (    4):  99.998211828985 % (IJ)

  - Occupation number analysis for DOUBLES-pairs:

   Orbital Indices     % trace(D) 
  -----------------------------------
Process 0:   (    1,     1):  99.918959111137 %
Process 0:   (    2,     1):  99.947418410269 %
Process 0:   (    2,     2):  99.918961430391 %

  - Occupation number analysis for SINGLES-pairs:

   Orbital Index       % trace(D) 
  -----------------------------------
Process 0:   (    1):  99.998281688640 % (IJ)
Process 0:   (    2):  99.998282318707 % (IJ)

 PNO Occupation Number Statistics: 
  | Av. % of trace(Dij) retained        ...  99.933851087518
  | sigma^2 in % of trace(Dij) retained ...   1.26e-04
  | Av. % of trace(Di) retained         ...  99.998273851224
  | sigma^2 in % of trace(Di) retained  ...   1.52e-09
 Distributions of % trace(Dij) recovered:
  |       >= 99.9  ...    10 (100.0 % of all pairs)
 Distributions of % trace(Di) recovered :
  |       >= 99.9  ...     4 (100.0 % of all I-pairs )

Making pair pair interaction lists          ... 
Pair pair interaction statistics
Nr. of pairs:                        10
Nr. of Singles:                       4
Average (per pair domain)               (Total):
Atoms:                              3.0 (3)
PNOs:                              12.3
PAOs:                   92.0 (92)
Aux functions:                    500.0 (500)
AuxAtoms:                           3.0 (3)
EXT1 basis functions:              92.0 (92)
Interacting Pairs:                  3.0 (10)
Interacting Pairs - Singles:        4.0 (4)
Average (per Single domain):
Atoms (Singles):                    3.0 (3)
PNOs (Singles):                    62.0
Basis functions (Singles):         92.0 (92)
Interacting Singles - Singles:      4.0 (4)
Interacting Singles - Pairs:       10.0 (10)
done

                       ===========================
                         10 OF   10 PAIRS ARE KEPT
                       ===========================

Total time spent in the initial guess                 ...     0.138 sec
Pair domain construction                              ...     0.000 sec
Time for calculating MP2 Guess in PAOs                ...     0.031 sec
     Time for Local metric generation                 ...     0.000 sec
     Time for Local Kij generation                    ...     0.030 sec
     Time for Local MP2 calculation                   ...     0.000 sec
     Time for LMP2 iterations                         ...     0.073 sec
          prep and other time                         ...     0.001 sec
          Time for sigma                              ...     0.025 sec (    0.022 sec in k-loop)
          Time for DIIS                               ...     0.033 sec
          Time for Update                             ...     0.004 sec
      Time for LMP2 I/O                               ...     4.439 sec
      Time for Initial PNO                            ...     0.006 sec
Time for generating PNOs                              ...     0.001 sec
Time for pairlist organization                        ...     0.000 sec
Time for pair-pair interaction organization           ...     0.000 sec
Size of the domain VM**-1/2 file                      ...        26 MB
Size of the P2V_red file                              ...         0 MB
L-MP2 correlation energy (all non-screened pairs)     ...      -0.269426158208 Eh
L-MP2 PNO error correction                            ...      -0.000001897190 Eh
                                                          --------------------
Initial total L-MP2 energy (non-screened pairs)       ...      -0.269428055398 Eh

Initial PNO correlation energy                        ...      -0.268935402705 Eh
sum of pair energies estimated for screened out pairs ...       0.000000000000 Eh
sum of MP2 pair energies for pairs that were not kept ...       0.000000000000 Eh
sum of PNO error estimates for the kept pairs         ...      -0.000492652694 Eh
                                                          --------------------
sum of all corrections                                         -0.000492652694
Initial total correlation energy                               -0.269428055398
Thresholds for map construction and integral transformation for fine MP2 and CCSD(T) calculation:
   TCutMKN   ...     1.0e-03
   TCutDO    ...     5.0e-03
   TCutPairs ...     1.0e-05
   TCutCMO   ...     1.0e-03
   TCutCPAO  ...     1.0e-03

Time for aux screen maps:            0.000
Time for maps after fine MP2:            0.001
-----------------------------
LOCAL RI TRANSFORMATION (IJV)
-----------------------------

Orbital window:       1 to 4
Basis functions:     92 (32 shells)
Aux. functions:     500 (124 shells)
Use SHARK:           on

Processing maps (0.0 sec)
Average map sizes:
   Aux shells -> MOs(i)            4.0
   Aux shells -> MOs(j)            4.0
   MOs        -> AO shells        32.0

Calculating integrals (0.1 sec, 0.067 MB)
Sorting integrals (0.0 sec, 0.061 MB)
Total time for the integral transformation: 0.1 sec
--------------------------------
LOCAL RI TRANSFORMATION (VABPAO)
--------------------------------

Number of PAOs:      92
Basis functions:     92 (32 shells)
Aux. functions:     500 (124 shells)
Use SHARK:           on

Processing maps (0.0 sec)
Average map sizes:
   Aux shells -> PAOs             92.0
   PAOs       -> AO shells        32.0

Calculating integrals (0.1 sec, 32.293 MB)
Finished
Precomputing pair/pair interactions        ... 

-------------------------------------
Pair Pair Term precalculation with     
RI-(ij|mn) and (im|jn) transformation  
ON THE FLY                             
-------------------------------------

Max core memory to be used                    ...   4000 MB
Number of batches needed                      ...      1 
Average Memory used per batch                 ...      0 MB
Pair Pair terms per batch                     ...      0 
Total number of pairs                         ...     10 
Memory needed for all IJPairs                 ...      0 MB
   IBatch   1 (of   1)              ... done (    0.431 sec)
Total EXT                           ...           0.431 sec

Detailed timings: 
Reading/generating VMAT                    ...          0.005 sec
Reading 3-index integrals                  ...          0.021 sec
Sorting of data                            ...          0.178 sec
Get Pair1 ...          0.000 sec
Get Pair2 ...          0.000 sec
Get Pair3 ...          0.000 sec
Get Pair4 ...          0.000 sec
Get Pair5 ...          0.000 sec
Get Pair6 ...          0.000 sec
Orthogonalization of the 3-index integrals ...          0.020 sec
Multipl. of 3-index integrals              ...          0.172 sec
GetNewMat              ...          0.006 sec
Generating IJMN (orthog. + mult.)          ...          0.284 sec
Generating IJMN (orthog. + mult.) 1         ...          0.261 sec
Generating IJMN (orthog. + mult.) 2         ...          0.000 sec
Generating IJMN (orthog. + mult.) 3         ...          0.009 sec
Generating IJMN (orthog. + mult.) 4         ...          0.014 sec
Generating IMJN (orthog. + mult.)          ...          0.030 sec

done (    0.440 sec)
---------------------
RI-PNO TRANSFORMATION
---------------------

Total Number of PNOs                   ...   410
Average number of PNOs per pair        ...    41
Maximal number of PNOs per pair        ...    43
   #pairs with  1 -  5 PNOs   :    0
   #pairs with  6 - 10 PNOs   :    0
   #pairs with 11 - 15 PNOs   :    0
   #pairs with 16 - 20 PNOs   :    0
   #pairs with 21 - 25 PNOs   :    0
   #pairs with 26 - 30 PNOs   :    0
   #pairs with 31 - 35 PNOs   :    0
   #pairs with 36 - 40 PNOs   :    4
   #pairs with 41 - 45 PNOs   :    6
   #pairs with 46 - 50 PNOs   :    0

Generation of (ij|ab)[P] integrals            ... on
Generation of (ia|bc)[P],(ja|bc)[P] integrals ... on
Storage of 3 and 4 external integrals         ... on
Generation of ALL (ka|bc)[P] integrals        ... on
Keep RI integrals in memory                   ... off
PNO Integral generation
Max core memory to be used                    ...   4000 MB
Number of batches needed                      ...      1 
Memory available for IJPairs                  ...   3946 MB
Memory needed per IJPair                      ...     11 MB
Total number of pairs                         ...     10 
Memory needed for all IJPairs                 ...    107 MB

Ibatch:  1 (of  1)
Starting 2-4 index PNO integral generation ... done

Timings:
Total PNO integral transformation time     ...          0.341 sec
Reading/generating VMAT                    ...          0.002 sec
Reading 3-index integrals                  ...          0.015 sec
Sorting of data (for reading)              ...          0.013 sec
      Sorting of data (for reading) 1      ...          0.000 sec
      Sorting of data (for reading) 2      ...          0.012 sec
      Sorting of data (for reading) 3      ...          0.000 sec
      Sorting of data (for reading) 4      ...          0.000 sec
      Sorting of data (for reading) 5      ...          0.001 sec
      Sorting of data (for reading) 6      ...          0.000 sec
Sorting of data (for reading) - only MN    ...          0.012 sec
Sorting of data (for intermediates)        ...          0.002 sec
Sorting of data (for writing)              ...          0.000 sec
Transformation of 3-index int. to PNO basis...          0.073 sec
Orthogonalization of the 3-index integrals ...          0.053 sec
                                        ab ...          0.046 sec
                                        ia ...          0.003 sec
                                        ja ...          0.002 sec
                                        ka ...          0.000 sec
                                        ij ...          0.000 sec
                                      kikj ...          0.002 sec
Multipl. of orthog. 3-index integrals      ...          0.088 sec
Generating of PNO1 integrals               ...          0.001 sec
Generating of K and J integrals            ...          0.001 sec
Generating of PNO3ij integrals             ...          0.014 sec
Generating of PNO3All integrals            ...          0.030 sec
Generating of PNO4 integrals               ...          0.134 sec
Generating of IKJL integrals               ...          0.000 sec
Storing data in files                      ...          0.091 sec
tmPrep ...          0.000 sec
tmPrep2 ...          0.003 sec
tmGenerate ...          0.237 sec
tmRead ...          0.102 sec
tmVIJSum ...          0.000 sec
tmVIMSum ...          0.004 sec
tmVABSum ...          0.097 sec
tmGetPairSum ...          0.000 sec
tmGetAuxAddrSum ...          0.000 sec
tmGetNewMatSum ...          0.001 sec
Size of the 3-external file                ...         5 MB
Size of the 4-external file                ...        28 MB
Size of the IKJL file                      ...         0 MB
Size of the all 3-external file            ...        10 MB
Size of the 1-external file                ...         0 MB

Making pair/pair overlap matrices          ... done (    0.003 sec)
Size of the pair overlap file              ... 1 MB
Redoing the guess amplitudes               ... done (    0.000 sec)

-------------------------
FINAL STARTUP INFORMATION
-------------------------

E(0)                                       ...    -76.059068232
E(L-MP2)                                   ...     -0.269428055
E(L-MP2) including corrections             ...     -0.269428055
Initial E(tot)                             ...    -76.328496288
<T|T>                                      ...      0.058211935
Number of pairs included                   ... 10
Total number of pairs                      ... 10

------------------------------------------------
                  RHF COUPLED CLUSTER ITERATIONS
------------------------------------------------

Number of PNO amplitudes to be optimized   ...        16868
Number of non-PNO amplitudes               ...        75690
Untruncated number of regular amplitudes   ...        75690

Iter       E(tot)           E(Corr)          Delta-E          Residual     Time
  0    -76.320278020     -0.260717135      0.008710920      0.015189726    0.42
                           *** Turning on DIIS ***
  1    -76.326016256     -0.266455371     -0.005738236      0.010389921    0.46
  2    -76.331720745     -0.272159860     -0.005704488      0.003504625    0.43
  3    -76.332836547     -0.273275662     -0.001115803      0.001328825    0.43
  4    -76.333117580     -0.273556695     -0.000281033      0.000287909    0.42
  5    -76.333167092     -0.273606207     -0.000049513      0.000095572    0.42
  6    -76.333178370     -0.273617485     -0.000011278      0.000023825    0.46
  7    -76.333179382     -0.273618497     -0.000001012      0.000008375    0.49
  8    -76.333179819     -0.273618934     -0.000000437      0.000002597    0.47
  9    -76.333179663     -0.273618778      0.000000156      0.000000849    0.46
               --- The Coupled-Cluster iterations have converged ---

----------------------
COUPLED CLUSTER ENERGY
----------------------

E(0)                                       ...    -76.059068232
E(CORR)(strong-pairs)                      ...     -0.273618778
E(CORR)(weak-pairs)                        ...     -0.000492653
E(CORR)(corrected)                         ...     -0.274111431
E(TOT)                                     ...    -76.333179663
Singles Norm <S|S>**1/2                    ...      0.027758964  
T1 diagnostic                              ...      0.009814276  

------------------
LARGEST AMPLITUDES
------------------
   4->  5   4->  5       0.053437
   3->  5   3->  5       0.050097
   3-> 15   3->  5       0.022012
   3->  5   3-> 15       0.022012
   2->  7   2->  7       0.019653
   1->  7   1->  7       0.019652
   2->  6   2->  6       0.019343
   1->  6   1->  6       0.019302
   4-> 16   4->  5       0.019181
   4->  5   4-> 16       0.019181
   3->  7   3->  7       0.017410
   3-> 15   3-> 15       0.017094
   2-> 14   2-> 14       0.016519
   1-> 14   1-> 14       0.016467
   4->  7   4->  7       0.016053
   1->  5   1->  5       0.015550


-------------------------------------------
DLPNO BASED TRIPLES CORRECTION
-------------------------------------------

Singles multiplier          ...  1.000000
TCutTNO                     ... 1.000e-09
TCutMP2Pairs                ... 1.000e-06
TCutDOStrong                ... 1.000e-02
TCutMKNStrong               ... 1.000e-02
TCutDOWeak                  ... 2.000e-02
TCutMKNWeak                 ... 1.000e-01

Parameters used in iterative triples
TCutFock                    ... 1.000e-03
TCutWeak                    ... 1.000e-08
TCutWeakGuess               ... 6.000e-06
TCutIter                    ... 1.000e-03
TNOScaleS                   ... 1.000e+01
TNOScaleW                   ... 1.000e+02
ETol                        ... 1.000e-04

Fragment selection                          .... not used
Number of Triples that are to be computed   ...        16
TNO Construction, Integral generation and (T) correction calculation are done consecutively per batch.
Batch size determined on the fly.
Max core memory to be used                        ...   4000 MB
Memory available for Triples                      ...   3944 MB
Total number of Triples                           ...     16 

 . . . . . . . . .
10% done  
20% done  
30% done  
40% done  
50% done  
60% done  
70% done  
80% done  
90% done               (      1.109 sec)

-------------------
Triples Iterations:
-------------------

The T1 Strong/Weak pair is = 13/3 

Iter        E(Triple)      Delta-E            Time
  0     0.000000000000    0.008388758534      1.13
  1    -0.008696978732    0.000308220198      0.42
  2    -0.008729851539    0.000032872807      0.43

------------------
TRIPLES CORRECTION
------------------

The Conventional (T0) is    -0.008402096431
The Truncated    (T0) is    -0.008388758534
The corrected     (T) is    -0.008743189436

Triples timings:
Total time for T0               ...     1.129 sec
Total time for Iterative (T)    ...     0.850 sec
Total time of overall (T)       ...     2.083 sec

Triples List generation         ...     0.000 sec
TNO generation                  ...     0.018 sec
Pair density generation         ...     0.000 sec
Look up tables                  ...     0.000 sec
Generating 3-index integrals    ...     0.193 sec
  Make 4-ind.int. from 3-ind.int...     0.176 sec
  Projecting amplitudes (D + S) ...     0.006 sec
  Downprojecting integrals      ...     0.254 sec
  Energy contr. (sum over a,b,c)...     0.263 sec
Fitting ET(->0)                 ...     0.000 sec

Everything after 3-index        ...     0.916 sec

Timing details:
 TNO integrals                  ...     0.348 sec
   Reading 3-index integrals    ...     0.015 sec
   Sorting integrals            ...     0.091 sec
       Sorting integrals 1      ...     0.000 sec
       Sorting integrals 2      ...     0.014 sec
       Sorting integrals 3      ...     0.005 sec
       Sorting integrals 4      ...     0.000 sec
       Sorting integrals 5      ...     0.001 sec
       Sorting integrals 6      ...     0.071 sec
   Calculating local VM**-1/2   ...     0.007 sec
   Orthogonal. integrals        ...     0.011 sec
   Multipl. 3-index integrals   ...     0.223 sec
   All concerning IRIab (w/TNO) ...     0.079 sec

 Calculate W0/W1                ...     0.217 sec
 W 3-ext contribution           ...     0.109 sec
 W 3-int contribution           ...     0.025 sec
 Sorting W                      ...     0.075 sec

 V exchange contribution        ...     0.146 sec

 Timings for Triples without generation
     of 3-index integrals       ...     0.916 sec
       0 weak pairs             ...     0.916 sec
       1 weak pair              ...     0.000 sec
       2 weak pairs             ...     0.000 sec
       3 weak pairs             ...     0.000 sec
  Extra time for extrapolation  ...     0.000 sec

Number of Triples   (0, 1, 2, 3 weak pairs; overall):     16       0       0       0  (    16)
Number of Atoms     (0, 1, 2, 3 weak pairs; overall):    3.0     0.0     0.0     0.0  (     3)
Number of PAOs      (0, 1, 2, 3 weak pairs; overall):   92.0     0.0     0.0     0.0  (    92)
Number of AuxFcns   (0, 1, 2, 3 weak pairs; overall):  402.0     0.0     0.0     0.0  (   500)
Number of TNOs      (0, 1, 2, 3 weak pairs         ):   75.1     0.0     0.0     0.0
Aver. Number of NTNO, Atoms, PAOs, AuxFcns / Triples:     16    75.1     3.0    92.0   402.0

Triples Correction (T)                     ...     -0.008743189
Final correlation energy                   ...     -0.282854620
E(CCSD)                                    ...    -76.333179663
E(CCSD(T))                                 ...    -76.341922852


------------------------------
PAIR CORRELATION ENERGIES (Eh)
------------------------------


------------------------------------------------------------------------------------------------------
    i     j         EP(Guess)         EP(Final)       Ratio       EP(aa)            EP(ab)     #PNOs  
------------------------------------------------------------------------------------------------------
    4     4  :     -0.028686336      -0.031985038     0.90     -0.000000000      -0.031985038          40 
    3     3  :     -0.028382655      -0.031556320     0.90     -0.000000000      -0.031556320          39 
    2     1  :     -0.030359884      -0.029636729     1.02     -0.010526686      -0.019110043          43 
    4     1  :     -0.027379353      -0.026388823     1.04     -0.009725188      -0.016663635          43 
    4     2  :     -0.027375982      -0.026385971     1.04     -0.009724215      -0.016661756          43 
    1     1  :     -0.024409369      -0.026331492     0.93     -0.000000000      -0.026331492          37 
    2     2  :     -0.024408374      -0.026331014     0.93     -0.000000000      -0.026331014          37 
    3     1  :     -0.027187444      -0.026234140     1.04     -0.009678530      -0.016555610          43 
    3     2  :     -0.027183767      -0.026231267     1.04     -0.009677497      -0.016553771          43 
    4     3  :     -0.024054893      -0.022538425     1.07     -0.008506707      -0.014031719          42 



--------------------------------------------------------------------------------
                                    TIMINGS
--------------------------------------------------------------------------------


Total execution time                   ...        9.000 sec

Localization of occupied MO's          ...        0.273 sec (  3.0%)
Fock Matrix Formation                  ...        0.350 sec (  3.9%)
Global overlap, Fock, MKN matrices     ...        0.121 sec (  1.3%)
Differential overlap integrals         ...        0.334 sec (  3.7%)
Organizing maps                        ...        0.002 sec (  0.0%)
RI 3-index integral generations        ...        0.336 sec (  3.7%)
RI-PNO integral transformation         ...        0.787 sec (  8.7%)
Initial Guess                          ...        0.172 sec (  1.9%)
DIIS Solver                            ...        0.054 sec (  0.6%)
State Vector Update                    ...        0.001 sec (  0.0%)
Sigma-vector construction              ...        4.428 sec ( 49.2%)
  <D|H|D>(0-ext)                       ...        0.018 sec (  0.4% of sigma)
  <D|H|D>(2-ext Fock)                  ...        0.002 sec (  0.0% of sigma)
  <D|H|D>(2-ext)                       ...        0.068 sec (  1.5% of sigma)
  <D|H|D>(4-ext)                       ...        0.851 sec ( 19.2% of sigma)
  <D|H|D>(4-ext-corr)                  ...        2.548 sec ( 57.5% of sigma)
  CCSD doubles correction              ...        0.005 sec (  0.1% of sigma)
  <S|H|S>                              ...        0.035 sec (  0.8% of sigma)
  <S|H|D>(1-ext)                       ...        0.006 sec (  0.1% of sigma)
  <S|H|D>(3-ext)                       ...        0.023 sec (  0.5% of sigma)
  Fock-dressing                        ...        0.110 sec (  2.5% of sigma)
  Singles amplitudes                   ...        0.007 sec (  0.2% of sigma)
  (ik|jl)-dressing                     ...        0.013 sec (  0.3% of sigma)
  (ij|ab),(ia|jb)-dressing             ...        0.042 sec (  1.0% of sigma)
Total Time for computing (T)           ...        2.083 sec ( 23.1% of ALL)


Maximum memory used throughout the entire MDCI-calculation: 225.1 MB

-------------------------   --------------------
FINAL SINGLE POINT ENERGY       -76.341922852472
-------------------------   --------------------


                            ***************************************
                            *     ORCA property calculations      *
                            ***************************************


  WARNING: The energy has been calculated at the MDCI level but the densities
           used in the property calculations are still SCF densities
           MDCI response densities have not been calculated 
           use %mdci Density linearized end
           or  %mdci Density unrelaxed end
           or  %mdci Density orbopt end

                                    ---------------------
                                    Active property flags
                                    ---------------------
   (+) Dipole Moment


------------------------------------------------------------------------------
                       ORCA ELECTRIC PROPERTIES CALCULATION
------------------------------------------------------------------------------

Dipole Moment Calculation                       ... on
Quadrupole Moment Calculation                   ... off
Polarizability Calculation                      ... off
GBWName                                         ... frag2.gbw
Electron density                                ... frag2.scfp
The origin for moment calculation is the CENTER OF MASS  = ( 4.742064, -2.324557  0.741422)

-------------
DIPOLE MOMENT
-------------
                                X             Y             Z
Electronic contribution:     -0.08228      -0.06112       0.17339
Nuclear contribution   :      0.39941       0.28095      -0.85009
                        -----------------------------------------
Total Dipole Moment    :      0.31713       0.21983      -0.67670
                        -----------------------------------------
Magnitude (a.u.)       :      0.77899
Magnitude (Debye)      :      1.98003



--------------------
Rotational spectrum 
--------------------
 
Rotational constants in cm-1:    27.180741    13.990221     9.236233 
Rotational constants in MHz : 814858.126026 419416.280498 276895.285639 

 Dipole components along the rotational axes: 
x,y,z [a.u.] :     0.034428    -0.778227     0.000252 
x,y,z [Debye]:     0.087508    -1.978095     0.000641 

 

--------------------------------
SUGGESTED CITATIONS FOR THIS RUN
--------------------------------

Below you find a list of papers that are relevant to this ORCA run
We neither can nor want to force you to cite these paper, but we appreciate if you do
You receive ORCA, which is the product of a lot of hard work by many enthusiastic individuals, for free
The *only* thing we kindly ask in return is that you cite our papers,
We deeply appreciate it, if you show your appreciation for ORCA but *not* just citing the generic ORCA reference.

Please note that relegating all ORCA citations to the supporting information does *not* help us.
SI sections are not index - citations you put there will not count into our citation statistics
But we need these citations in order to attract the funding ressources that allow us to do what we are doing

Therefore, please consider citing at least a few of the papers listed below, if you are a happy ORCA user

In addition to the list printed below, the program has created the file frag2.bibtex that contains the list in bibtex format
In this format, you can import it easily in all common literature databanks and citation aid programs


List of essential papers. We consider these as the minimum necessary citations

  1. Neese,F.
     Software update: the ORCA program system, version 5.0
     WIRES Comput. Molec. Sci., 2022 12(1)e1606
     doi.org/10.1002/wcms.1606

List of papers to cite with high priority. The work reported in these papers was absolutely
necessary for this run to complete.
Our perspective: the developers of density functionals and basis sets usually get cited in chemistry papers
Good! But without the algorithms to do something with them, the functionals or basis sets would not do anything.
Hence, in our opinion, the algorithm design and method developments papers are equally worthy of getting cited

  1. Neese,F.
     An improvement of the resolution of the identity approximation for the formation of the Coulomb matrix
     J. Comp. Chem., 2003 24(14)1740-1747
     doi.org/10.1002/jcc.10318
  2. Neese,F.; Wennmohs,F.; Hansen,A.; Becker,U.
     Efficient, approximate and parallel Hartree-Fock and hybrid DFT calculations. A 'chain-of-spheres' algorithm for the Hartree-Fock exchange
     Chem. Phys., 2009 356(1-3)98-109
     doi.org/10.1016/j.chemphys.2008.10.036
  3. Neese,F.; Hansen,A.; Liakos,D.G.
     Efficient and accurate approximations to the local coupled cluster singles doubles method using a truncated pair natural orbital basis
     J. Chem. Phys., 2009 131 064103
     doi.org/10.1063/1.3173827
  4. Neese,F.; Wennmohs,F.; Hansen,A.
     Efficient and accurate local approximations to coupled-electron pair approaches: An attempt to revive the pair natural orbital method
     J. Chem. Phys., 2009 130 114108
     doi.org/10.1063/1.3086717
  5. Riplinger,C.; Neese,F.
     An efficient and near linear scaling pair natural orbital based local coupled cluster method
     J. Chem. Phys., 2013 138(3)Art. No. 034106
     doi.org/10.1063/1.4773581
  6. Riplinger,C.; Sandhoefer,B.; Hansen,A.; Neese,F.
     Natural triple excitations in local coupled cluster calculations with pair natural orbitals
     J. Chem. Phys., 2013 139(13)Art. No. 134101
     doi.org/10.1063/1.4821834
  7. Riplinger,C.; Pinski,P.; Becker,U.; Valeev,E.F.; Neese,F.
     Sparse maps-A systematic infrastructure for reduced-scaling electronic structure methods. II. Linear scaling domain based pair natural orbital coupled cluster theory
     J. Chem. Phys., 2016 144 
     doi.org/10.1063/1.4939030
  8. Bistoni,G.; Riplinger,C.; Minenkov,Y.; Cavallo,L.; Auer,A.A.; Neese,F.
     Treating Subvalence Correlation Effects in Domain Based Pair Natural Orbital Coupled Cluster Calculations: An Out-of-the-Box Approach
     J. Theo. Comp. Chem., 2017 13 3220-3227
     doi.org/10.1021/acs.jctc.7b00352
  9. Guo,Y.; Riplinger,C.; Becker,U.; Liakos,D.G.; Minenkov,Y.; Cavallo,L.; Neese,F.
     Communication: An improved linear scaling perturbative triples correction for the domain based local pair-natural orbital based singles and doubles coupled cluster method DLPNO-CCSD(T)
     J. Chem. Phys., 2018 148 5
     doi.org/10.1063/1.5011798
 10. Helmich-Paris,B.; de Souza,B.; Neese,F.; Izsk,R.
     An improved chain of spheres for exchange algorithm
     J. Chem. Phys., 2021 155 104109
     doi.org/doi: 10.1063/5.0058766.

List of suggested additional citations. These are papers that are important in the 'surrounding' of 
of this run, or papers that preceded the highly important papers. If you like your results we are grateful for a citation.

  1. Izsak,R.; Neese,F.
     An overlap fitted chain of spheres exchange method
     J. Chem. Phys., 2011 135 144105
     doi.org/10.1063/1.3646921
  2. Izsak,R.; Hansen,A.; Neese,F.
     The resolution of identity and chain of spheres approximations for the LPNO-CCSD singles Fock term
     Molec. Phys., 2012 110 2413-2417
     doi.org/10.1080/00268976.2012.687466
  3. Neese,F.
     The ORCA program system
     WIRES Comput. Molec. Sci., 2012 2(1)73-78
     doi.org/10.1002/wcms.81
  4. Izsak,R.; Neese,F.; Klopper,W.
     Robust fitting techniques in the chain of spheres approximation to the Fock exchange: The role of the complementary space
     J. Chem. Phys., 2013 139 
     doi.org/10.1063/1.4819264
  5. Neese,F.
     Software update: the ORCA program system, version 4.0
     WIRES Comput. Molec. Sci., 2018 8(1)1-6
     doi.org/10.1002/wcms.1327
  6. Neese,F.; Wennmohs,F.; Becker,U.; Riplinger,C.
     The ORCA quantum chemistry program package
     J. Chem. Phys., 2020 152 Art. No. L224108
     doi.org/10.1063/5.0004608

Timings for individual modules:

Sum of individual times         ...       12.626 sec (=   0.210 min)
GTO integral calculation        ...        0.483 sec (=   0.008 min)   3.8 %
SCF iterations                  ...        2.837 sec (=   0.047 min)  22.5 %
MDCI module                     ...        9.307 sec (=   0.155 min)  73.7 %
                             ****ORCA TERMINATED NORMALLY****
TOTAL RUN TIME: 0 days 0 hours 0 minutes 13 seconds 63 msec