                                 *****************
                                 * O   R   C   A *
                                 *****************

                                            #,                                       
                                            ###                                      
                                            ####                                     
                                            #####                                    
                                            ######                                   
                                           ########,                                 
                                     ,,################,,,,,                         
                               ,,#################################,,                 
                          ,,##########################################,,             
                       ,#########################################, ''#####,          
                    ,#############################################,,   '####,        
                  ,##################################################,,,,####,       
                ,###########''''           ''''###############################       
              ,#####''   ,,,,##########,,,,          '''####'''          '####       
            ,##' ,,,,###########################,,,                        '##       
           ' ,,###''''                  '''############,,,                           
         ,,##''                                '''############,,,,        ,,,,,,###''
      ,#''                                            '''#######################'''  
     '                                                          ''''####''''         
             ,#######,   #######,   ,#######,      ##                                
            ,#'     '#,  ##    ##  ,#'     '#,    #''#        ,####,   ,####,        
            ##       ##  ##   ,#'  ##            #'  '#       #'       #'  '#        
            ##       ##  #######   ##           ,######,      #####,   #    #        
            '#,     ,#'  ##    ##  '#,     ,#' ,#      #,     #,   #   #,  ,#        
             '#######'   ##     ##  '#######'  #'      '#     '####' # '####'        



                #########################################################
                #                        -***-                          #
                #          Department of theory and spectroscopy        #
                #                                                       #
                #                      Frank Neese                      #
                #                                                       #
                #     Directorship, Architecture, Infrastructure        #
                #                    SHARK, DRIVERS                     #
                #        Core code/Algorithms in most modules           #
                #                                                       #
                #        Max Planck Institute fuer Kohlenforschung      #
                #                Kaiser Wilhelm Platz 1                 #
                #                 D-45470 Muelheim/Ruhr                 #
                #                      Germany                          #
                #                                                       #
                #                  All rights reserved                  #
                #                        -***-                          #
                #########################################################


                         Program Version 6.0.x  -  CURRENT   -
                                (GIT: $4a36cb3b$)
                ($2024-09-06 18:35:38 +0200 $)

                  !                     WARNING:                         !
                  !         This is a DEVELOPMENT version                !

                         (BUILD: $Sun 08 Sep 2024 12:04:45 AM CEST$)


 With contributions from (in alphabetic order):
   Daniel Aravena         : Magnetic Suceptibility
   Michael Atanasov       : Ab Initio Ligand Field Theory (pilot matlab implementation)
   Alexander A. Auer      : GIAO ZORA, VPT2 properties, NMR spectrum
   Ute Becker             : All parallelization in ORCA, NUMFREQ, NUMCALC
   Giovanni Bistoni       : ED, misc. LED, open-shell LED, HFLD
   Martin Brehm           : Molecular dynamics
   Dmytro Bykov           : pre 5.0 version of the SCF Hessian
   Marcos Casanova-Páez   : Triplet and SCS-CIS(D). UHF-(DLPNO)-IP/EA/STEOM-CCSD. UHF-CVS-IP/STEOM-CCSD
   Vijay G. Chilkuri      : MRCI spin determinant printing, contributions to CSF-ICE
   Pauline Colinet        : FMM embedding
   Dipayan Datta          : RHF DLPNO-CCSD density
   Achintya Kumar Dutta   : EOM-CC, STEOM-CC
   Nicolas Foglia         : Exact transition moments, OPA infrastructure, MCD improvements
   Dmitry Ganyushin       : Spin-Orbit,Spin-Spin,Magnetic field MRCI
   Miquel Garcia          : C-PCM and meta-GGA Hessian, CCSD/C-PCM, Gaussian charge scheme
   Tiago L. C. Gouveia    : GS-ROHF, GS-ROCIS
   Yang Guo               : DLPNO-NEVPT2, F12-NEVPT2, CIM, IAO-localization
   Andreas Hansen         : Spin unrestricted coupled pair/coupled cluster methods
   Ingolf Harden          : AUTO-CI MPn and infrastructure 
   Benjamin Helmich-Paris : MC-RPA, TRAH-(SCF,CASSCF), AVAS, COSX integrals, SCF dyn. polar.
   Lee Huntington         : MR-EOM, pCC
   Robert Izsak           : Overlap fitted RIJCOSX, COSX-SCS-MP3, EOM
   Riya Kayal             : Wick's Theorem for AUTO-CI, AUTO-CI UHF-CCSDT
   Emily Kempfer          : AUTO-CI, RHF CISDT and CCSDT
   Christian Kollmar      : KDIIS, OOCD, Brueckner-CCSD(T), CCSD density, CASPT2, CASPT2-K, improved NEVPT2
   Axel Koslowski         : Symmetry handling
   Simone Kossmann        : Meta GGA functionals, TD-DFT gradient, OOMP2, (MP2 Hessian; deprecated post 5.0)
   Lucas Lang             : DCDCAS
   Marvin Lechner         : AUTO-CI (C++ implementation), FIC-MRCC
   Spencer Leger          : CASSCF response
   Dagmar Lenk            : GEPOL surface, SMD, ORCA-2-JSON
   Dimitrios Liakos       : Extrapolation schemes; Compound Job, initial MDCI parallelization
   Dimitrios Manganas     : Further ROCIS development; embedding schemes. LFT, Crystal Embedding
   Dimitrios Pantazis     : SARC Basis sets
   Anastasios Papadopoulos: AUTO-CI, single reference methods and gradients
   Taras Petrenko         : pre 6.0 DFT Hessian and TD-DFT gradient, (ASA, deprecated), ECA, 1-Electron XAS/XES, NRVS
   Peter Pinski           : DLPNO-MP2, DLPNO-MP2 Gradient
   Christoph Reimann      : Effective Core Potentials
   Marius Retegan         : Local ZFS, SOC
   Christoph Riplinger    : Optimizer, TS searches, QM/MM, DLPNO-CCSD(T), (RO)-DLPNO pert. Triples
   Michael Roemelt        : Original ROCIS implementation
   Masaaki Saitow         : Open-shell DLPNO-CCSD energy and density
   Barbara Sandhoefer     : DKH picture change effects
   Kantharuban Sivalingam : CASSCF convergence/infrastructure, NEVPT2 and variants, FIC-MRCI
   Bernardo de Souza      : ESD, SOC TD-DFT
   Georgi Stoychev        : AutoAux, RI-MP2 NMR, DLPNO-MP2 response, X2C
   Van Anh Tran           : RI-MP2 g-tensors
   Willem Van den Heuvel  : Paramagnetic NMR
   Zikuan Wang            : NOTCH, Electric field optimization 
   Frank Wennmohs         : Technical directorship and infrastructure
   Hang Xu                : AUTO-CI-Response properties 


 We gratefully acknowledge several colleagues who have allowed us to
 interface, adapt or use parts of their codes:
   Stefan Grimme, W. Hujo, H. Kruse, P. Pracht,  : VdW corrections, initial TS optimization,
                  C. Bannwarth, S. Ehlert,         DFT functionals, gCP, sTDA/sTD-DF
                  L. Wittmann, M. Mueller
   Ed Valeev, F. Pavosevic, A. Kumar             : LibInt (2-el integral package), F12 methods
   Garnet Chan, S. Sharma, J. Yang, R. Olivares  : DMRG
   Ulf Ekstrom                                   : XCFun DFT Library
   Mihaly Kallay                                 : mrcc  (arbitrary order and MRCC methods)
   Frank Weinhold                                : gennbo (NPA and NBO analysis)
   Simon Mueller                                 : openCOSMO-RS
   Christopher J. Cramer and Donald G. Truhlar   : smd solvation model
   Lars Goerigk                                  : TD-DFT with DH, B97 family of functionals
   V. Asgeirsson, H. Jonsson                     : NEB implementation
   FAccTs GmbH                                   : IRC, NEB, NEB-TS, DLPNO-Multilevel, CI-OPT
                                                   MM, QMMM, 2- and 3-layer-ONIOM, Crystal-QMMM,
                                                   LR-CPCM, SF, NACMEs, symmetry and pop. for TD-DFT,
                                                   nearIR, NL-DFT gradient (VV10), updates on ESD,
                                                   ML-optimized integration grids, MBIS, APM,
                                                   GOAT, DOCKER, SOLVATOR, interface openCOSMO-RS
   S Lehtola, MJT Oliveira, MAL Marques          : LibXC Library
   Liviu Ungur et al                             : ANISO software


 Your calculation uses the libint2 library for the computation of 2-el integrals
 For citations please refer to: http://libint.valeyev.net

 Your ORCA version has been built with support for libXC version: 6.2.2
 For citations please refer to: https://libxc.gitlab.io

 This ORCA versions uses:
   CBLAS   interface :  Fast vector & matrix operations
   LAPACKE interface :  Fast linear algebra routines
   SCALAPACK package :  Parallel linear algebra routines
   Shared memory     :  Shared parallel matrices
   BLAS/LAPACK       :  OpenBLAS 0.3.26  USE64BITINT DYNAMIC_ARCH NO_AFFINITY Zen SINGLE_THREADED
        Core in use  :  Zen
   Copyright (c) 2011-2014, The OpenBLAS Project


================================================================================

----- Orbital basis set information -----
Your calculation utilizes the basis: aug-cc-pVTZ 
    H, B-Ne : Obtained from the ccRepo (grant-hill.group.shef.ac.uk/ccrepo) Feb. 2017
              R. A. Kendall, T. H. Dunning, Jr., R. J. Harrison, J. Chem. Phys. 96, 6796 (1992)
         He : Obtained from the ccRepo (grant-hill.group.shef.ac.uk/ccrepo) Feb. 2017
              D. E. Woon, T. H. Dunning, Jr., J. Chem. Phys. 100, 2975 (1994)
  Li-Be, Na : Obtained from the ccRepo (grant-hill.group.shef.ac.uk/ccrepo) Feb. 2017
              B. P. Prascher, D. E. Woon, K. A. Peterson, T. H. Dunning, Jr., A. K. Wilson, Theor. Chem. Acc. 128, 69 (2011)
         Mg : Obtained from the Peterson Research Group Website (tyr0.chem.wsu.edu/~kipeters) Feb. 2017
              B. P. Prascher, D. E. Woon, K. A. Peterson, T. H. Dunning, Jr., A. K. Wilson, Theor. Chem. Acc. 128, 69 (2011)
      Al-Ar : Obtained from the ccRepo (grant-hill.group.shef.ac.uk/ccrepo) Feb. 2017
              D. E. Woon, T. H. Dunning, Jr., J. Chem. Phys. 98, 1358 (1993)
      Sc-Zn : Obtained from the ccRepo (grant-hill.group.shef.ac.uk/ccrepo) Feb. 2017
              N. B. Balabanov, K. A. Peterson, J. Chem. Phys. 123, 064107 (2005)
              N. B. Balabanov, K. A. Peterson, J. Chem. Phys. 125, 074110 (2006)
      Ga-Kr : Obtained from the ccRepo (grant-hill.group.shef.ac.uk/ccrepo) Feb. 2017
              A. K. Wilson, D. E. Woon, K. A. Peterson, T. H. Dunning, Jr., J. Chem. Phys. 110, 7667 (1999)
     Ag, Au : Obtained from the Peterson Research Group Website (tyr0.chem.wsu.edu/~kipeters) Feb. 2017
              K. A. Peterson, C. Puzzarini, Theor. Chem. Acc. 114, 283 (2005)

----- AuxC basis set information -----
Your calculation utilizes the AutoAux generation procedure.
  G. L. Stoychev, A. A. Auer, F. Neese, J. Chem. Theory Comput. 13, 554 (2017)

----- AuxJK basis set information -----
Your calculation utilizes the AutoAux generation procedure.
  G. L. Stoychev, A. A. Auer, F. Neese, J. Chem. Theory Comput. 13, 554 (2017)

================================================================================
                                        WARNINGS
                       Please study these warnings very carefully!
================================================================================


WARNING: Post HF methods need fully converged wavefunctions
  ===> : Setting SCFConvForced true
         You can overwrite this default with %scf ConvForced false 


WARNING: MDCI localization with Augmented Hessian Foster-Boys
  ===> : Switching off randomization!

================================================================================
                                       INPUT FILE
================================================================================
NAME = MONO2.inp
|  1> ! DLPNO-CCSD(T1) NOTRAH RIJK aug-cc-pVTZ aug-cc-pVQZ/C aug-cc-pVQZ/JK verytightscf TightPNO  
|  2> 
|  3> %pal nprocs 4 end
|  4> 
|  5> %scf maxiter 999 end
|  6> %basis auxjk "autoaux" auxc "autoaux" autoauxlmax true end 
|  7> 
|  8> %mdci printlevel 3 end
|  9> 
| 10> *xyz 0	1
| 11> O   	 2.220871067	 0.026716792	 0.000620476
| 12> H   	 2.597492682	-0.411663274	 0.766744858
| 13> H   	 2.593135384	-0.449496183	-0.744782026
| 14> *
| 15> 
| 16>                          ****END OF INPUT****
================================================================================

                       ****************************
                       * Single Point Calculation *
                       ****************************

---------------------------------
CARTESIAN COORDINATES (ANGSTROEM)
---------------------------------
  O      2.220871    0.026717    0.000620
  H      2.597493   -0.411663    0.766745
  H      2.593135   -0.449496   -0.744782

----------------------------
CARTESIAN COORDINATES (A.U.)
----------------------------
  NO LB      ZA    FRAG     MASS         X           Y           Z
   0 O     8.0000    0    15.999    4.196838    0.050487    0.001173
   1 H     1.0000    0     1.008    4.908550   -0.777931    1.448938
   2 H     1.0000    0     1.008    4.900316   -0.849425   -1.407434

--------------------------------
INTERNAL COORDINATES (ANGSTROEM)
--------------------------------
 O      0   0   0     0.000000000000     0.00000000     0.00000000
 H      1   0   0     0.959670512127     0.00000000     0.00000000
 H      1   2   0     0.959679326264   103.95523303     0.00000000

---------------------------
INTERNAL COORDINATES (A.U.)
---------------------------
 O      0   0   0     0.000000000000     0.00000000     0.00000000
 H      1   0   0     1.813514446720     0.00000000     0.00000000
 H      1   2   0     1.813531103024   103.95523303     0.00000000

---------------------
BASIS SET INFORMATION
---------------------
There are 2 groups of distinct atoms

 Group   1 Type O   : 19s6p3d2f contracted to 5s4p3d2f pattern {88111/3111/111/11}
 Group   2 Type H   : 6s3p2d contracted to 4s3p2d pattern {3111/111/11}

Atom   0O    basis set group =>   1
Atom   1H    basis set group =>   2
Atom   2H    basis set group =>   2
---------------------------------
AUXILIARY/C BASIS SET INFORMATION
---------------------------------
There are 2 groups of distinct atoms

 Group   1 Type O   : 16s14p13d7f5g3h2i contracted to 16s14p13d7f5g3h2i pattern {1111111111111111/11111111111111/1111111111111/1111111/11111/111/11}
 Group   2 Type H   : 14s6p5d4f3g contracted to 14s6p5d4f3g pattern {11111111111111/111111/11111/1111/111}

Atom   0O    basis set group =>   1
Atom   1H    basis set group =>   2
Atom   2H    basis set group =>   2
----------------------------------
AUXILIARY/JK BASIS SET INFORMATION
----------------------------------
There are 2 groups of distinct atoms

 Group   1 Type O   : 16s14p13d7f5g3h2i contracted to 16s14p13d7f5g3h2i pattern {1111111111111111/11111111111111/1111111111111/1111111/11111/111/11}
 Group   2 Type H   : 14s6p5d4f3g contracted to 14s6p5d4f3g pattern {11111111111111/111111/11111/1111/111}

Atom   0O    basis set group =>   1
Atom   1H    basis set group =>   2
Atom   2H    basis set group =>   2


           ************************************************************
           *        Program running with 4 parallel MPI-processes     *
           *              working on a common directory               *
           ************************************************************
------------------------------------------------------------------------------
                             ORCA STARTUP CALCULATIONS
                           -- RI-GTO INTEGRALS CHOSEN --
------------------------------------------------------------------------------
------------------------------------------------------------------------------
                   ___                                                        
                  /   \      - P O W E R E D   B Y -                         
                 /     \                                                     
                 |  |  |   _    _      __       _____    __    __             
                 |  |  |  | |  | |    /  \     |  _  \  |  |  /  |          
                  \  \/   | |  | |   /    \    | | | |  |  | /  /          
                 / \  \   | |__| |  /  /\  \   | |_| |  |  |/  /          
                |  |  |   |  __  | /  /__\  \  |    /   |      \           
                |  |  |   | |  | | |   __   |  |    \   |  |\   \          
                \     /   | |  | | |  |  |  |  | |\  \  |  | \   \       
                 \___/    |_|  |_| |__|  |__|  |_| \__\ |__|  \__/        
                                                                              
                      - O R C A' S   B I G   F R I E N D -                    
                                      &                                       
                       - I N T E G R A L  F E E D E R -                       
                                                                              
 v1 FN, 2020, v2 2021, v3 2022-2024                                           
------------------------------------------------------------------------------


----------------------
SHARK INTEGRAL PACKAGE
----------------------

Number of atoms                             ...      3
Number of basis functions                   ...     98
Number of shells                            ...     38
Maximum angular momentum                    ...      3
Integral batch strategy                     ... SHARK/LIBINT Hybrid
RI-J (if used) integral strategy            ... SPLIT-RIJ (Revised 2003 algorithm where possible)
Printlevel                                  ...      1
Contraction scheme used                     ... PARTIAL GENERAL contraction
Prescreening option                         ... SCHWARTZ
   Thresh                                   ... 1.000e-12
   Tcut                                     ... 1.000e-14
   Tpresel                                  ... 1.000e-14 
Coulomb Range Separation                    ... NOT USED
Exchange Range Separation                   ... NOT USED
Multipole approximations                    ... NOT USED
Finite Nucleus Model                        ... NOT USED
CABS basis                                  ... NOT available
Auxiliary Coulomb fitting basis             ... NOT available
Auxiliary J/K fitting basis                 ... AVAILABLE
   # of basis functions in Aux-JK           ...    500
   # of shells in Aux-JK                    ...    124
   Maximum angular momentum in Aux-JK       ...      6
Auxiliary Correlation fitting basis         ... AVAILABLE
   # of basis functions in Aux-C            ...    500
   # of shells in Aux-C                     ...    124
   Maximum angular momentum in Aux-C        ...      6
Auxiliary 'external' fitting basis          ... NOT available

Checking pre-screening integrals            ... done (  0.1 sec) Dimension = 38
Save PGC pre-screening integrals            ... done (  0.1 sec) Dimension = 38
Calculate PGC overlap integrals             ... done (  0.1 sec) Dimension = 32
Calculating pre-screening integrals (ORCA)  ... done (  0.1 sec) Dimension = 32
Check shell pair data                       ... done (  0.0 sec)
Shell pair information
Shell pair cut-off parameter TPreSel        ...   1.0e-14
Total number of shell pairs                 ...       741
Shell pairs after pre-screening             ...       741
Total number of primitive shell pairs       ...       999
Primitive shell pairs kept                  ...       982
          la=0 lb=0:    190 shell pairs
          la=1 lb=0:    190 shell pairs
          la=1 lb=1:     55 shell pairs
          la=2 lb=0:    133 shell pairs
          la=2 lb=1:     70 shell pairs
          la=2 lb=2:     28 shell pairs
          la=3 lb=0:     38 shell pairs
          la=3 lb=1:     20 shell pairs
          la=3 lb=2:     14 shell pairs
          la=3 lb=3:      3 shell pairs

Calculating one electron integrals          ... done (  0.0 sec)
Calculating RI/JK V-Matrix + Cholesky decomp... done (  0.0 sec)
Calculating RI/C V-Matrix + Cholesky decomp.... done (  0.0 sec)
Calculating Nuclear repulsion               ... done (  0.0 sec) ENN=      9.172591109231 Eh

Diagonalization of the overlap matrix:
Smallest eigenvalue                        ... 3.876e-04
Time for diagonalization                   ...    0.001 sec
Threshold for overlap eigenvalues          ... 1.000e-07
Number of eigenvalues below threshold      ... 0
Time for construction of square roots      ...    0.001 sec
Total time needed                          ...    0.003 sec

-------------------
DFT GRID GENERATION
-------------------

General Integration Accuracy     IntAcc      ... 4.388
Radial Grid Type                 RadialGrid  ... OptM3 with GC (2021)
Angular Grid (max. ang.)         AngularGrid ... 4 (Lebedev-302)
Angular grid pruning method      GridPruning ... 4 (adaptive)
Weight generation scheme         WeightScheme... mBecke (2022)
Basis function cutoff            BFCut       ... 1.0000e-12
Integration weight cutoff        WCut        ... 1.0000e-14
Partially contracted basis set               ... off
Rotationally invariant grid construction     ... off
Angular grids for H and He will be reduced by one unit
Diffuse basis detected: some atoms will have their outermost
                        angular grid increased by 1.

Total number of grid points                  ...    13557
Total number of batches                      ...      214
Average number of points per batch           ...       63
Average number of grid points per atom       ...     4519

---------------------
SHARK GRID GENERATION
---------------------

General Integration Accuracy     IntAcc      ... 4.388
Radial Grid Type                 RadialGrid  ... OptM3 with GC (2021)
Angular Grid (max. ang.)         AngularGrid ... 4 (Lebedev-302)
Angular grid pruning method      GridPruning ... 4 (adaptive)
Weight generation scheme         WeightScheme... mBecke (2022)
Basis function cutoff            BFCut       ... 1.0000e-12
Integration weight cutoff        WCut        ... 1.0000e-14
Partially contracted basis set               ... off
Rotationally invariant grid construction     ... off
Angular grids for H and He will be reduced by one unit
Diffuse basis detected: some atoms will have their outermost
                        angular grid increased by 1.
Steep s-basis detected: some atoms will have their radial
                        grid points doubled.

Total number of grid points                  ...    20118
Total number of batches                      ...      315
Average number of points per batch           ...       63
Average number of grid points per atom       ...     6706
Initializing property integral containers    ... done (  0.0 sec)

SHARK setup successfully completed in   1.1 seconds

Maximum memory used throughout the entire STARTUP-calculation: 26.2 MB


           ************************************************************
           *        Program running with 4 parallel MPI-processes     *
           *              working on a common directory               *
           ************************************************************
-------------------------------------------------------------------------------
                                 ORCA GUESS
                   Start orbitals & Density for SCF / CASSCF
-------------------------------------------------------------------------------

------------
SCF SETTINGS
------------
Hamiltonian:
 Ab initio Hamiltonian  Method          .... Hartree-Fock(GTOs)
 RI-approximation to the Coulomb term is turned on
   Number of AuxJK basis functions      .... 500
   RI-JK (J+K treated both via RI)      .... on


General Settings:
 Integral files         IntName         .... MONO2
 Hartree-Fock type      HFTyp           .... RHF
 Total Charge           Charge          ....    0
 Multiplicity           Mult            ....    1
 Number of Electrons    NEL             ....   10
 Basis Dimension        Dim             ....   92
 Nuclear Repulsion      ENuc            ....      9.1725911092 Eh

Convergence Acceleration:
 AO-DIIS                CNVDIIS         .... on
   Start iteration      DIISMaxIt       ....    12
   Startup error        DIISStart       ....  0.200000
   # of expansion vecs  DIISMaxEq       ....     5
   Bias factor          DIISBfac        ....   1.050
   Max. coefficient     DIISMaxC        ....  10.000
 MO-DIIS                CNVKDIIS        .... off
 Trust-Rad. Augm. Hess. CNVTRAH         .... off
 SOSCF                  CNVSOSCF        .... on
   Start iteration      SOSCFMaxIt      ....   150
   Startup grad/error   SOSCFStart      ....  0.003300
   Hessian update       SOSCFHessUp     .... L-BFGS
 Level Shifting         CNVShift        .... on
   Level shift para.    LevelShift      ....    0.2500
   Turn off err/grad.   ShiftErr        ....    0.0010
 Zerner damping         CNVZerner       .... off
 Static damping         CNVDamp         .... on
   Fraction old density DampFac         ....    0.7000
   Max. Damping (<1)    DampMax         ....    0.9800
   Min. Damping (>=0)   DampMin         ....    0.0000
   Turn off err/grad.   DampErr         ....    0.1000

SCF Procedure:
 Maximum # iterations   MaxIter         ....   999
 SCF integral mode      SCFMode         .... Direct
   Integral package                     .... SHARK and LIBINT hybrid scheme
 Reset frequency        DirectResetFreq ....    20
 Integral Threshold     Thresh          ....  1.000e-12 Eh
 Primitive CutOff       TCut            ....  1.000e-14 Eh

Convergence Tolerance:
 Convergence Check Mode ConvCheckMode   .... Total+1el-Energy
 Convergence forced     ConvForced      .... 1
 Energy Change          TolE            ....  1.000e-09 Eh
 1-El. energy change                    ....  1.000e-06 Eh
 Orbital Gradient       TolG            ....  2.000e-06
 Orbital Rotation angle TolX            ....  2.000e-06
 DIIS Error             TolErr          ....  1.000e-08

------------------------------
INITIAL GUESS: MODEL POTENTIAL
------------------------------
Loading Hartree-Fock densities                     ... done
Calculating cut-offs                               ... done
Initializing the effective Hamiltonian             ... done
Setting up the integral package (SHARK)            ... done
Starting the Coulomb interaction                   ... done (   0.0 sec)
Making the grid                                    ... done (   0.0 sec)
Mapping shells                                     ... done
Starting the XC term evaluation                    ... done (   0.0 sec)
Transforming the Hamiltonian                       ... done (   0.0 sec)
Diagonalizing the Hamiltonian                      ... done (   0.0 sec)
Back transforming the eigenvectors                 ... done (   0.0 sec)
Now organizing SCF variables                       ... done
                      ------------------
                      INITIAL GUESS DONE (   0.0 sec)
                      ------------------
             **** ENERGY FILE WAS UPDATED (MONO2.en.tmp) ****
Finished Guess after   0.2 sec
Maximum memory used throughout the entire GUESS-calculation: 15.5 MB


           ************************************************************
           *        Program running with 4 parallel MPI-processes     *
           *              working on a common directory               *
           ************************************************************

-------------------------------------------------------------------------------------------
                                      ORCA LEAN-SCF
                              memory conserving SCF solver
-------------------------------------------------------------------------------------------

----------------------------------------D-I-I-S--------------------------------------------
Iteration    Energy (Eh)           Delta-E    RMSDP     MaxDP     DIISErr   Damp  Time(sec)
-------------------------------------------------------------------------------------------
    1    -75.9587760760075810     0.00e+00  1.42e-03  2.73e-02  3.83e-01  0.700   0.1
    2    -75.8514691853952741     1.07e-01  1.62e-03  2.60e-02  3.56e-01  0.700   0.1
    3    -75.8583440756023037    -6.87e-03  1.01e-03  1.57e-02  2.03e-01  0.700   0.0
                               ***Turning on AO-DIIS***
    4    -75.9304313290517428    -7.21e-02  3.64e-04  1.18e-02  9.78e-02  0.700   0.1
    5    -76.0237979147122189    -9.34e-02  1.27e-03  4.05e-02  6.26e-02  0.000   0.1
    6    -76.0594604176601763    -3.57e-02  2.43e-04  9.43e-03  2.64e-02  0.000   0.1
    7    -76.0598931762177415    -4.33e-04  1.34e-04  2.68e-03  2.24e-02  0.000   0.1
    8    -76.0601866674805791    -2.93e-04  1.11e-04  2.14e-03  1.51e-02  0.000   0.1
    9    -76.0603288446710906    -1.42e-04  1.37e-04  2.68e-03  8.86e-03  0.000   0.1
                              *** Initializing SOSCF ***
---------------------------------------S-O-S-C-F--------------------------------------
Iteration    Energy (Eh)           Delta-E    RMSDP     MaxDP     MaxGrad    Time(sec)
--------------------------------------------------------------------------------------
   10    -76.0603991768623331    -7.03e-05  1.53e-05  4.68e-04  8.05e-04     0.2
   11    -76.0604000231780901    -8.46e-07  6.18e-06  1.34e-04  8.29e-05     0.0
   12    -76.0604001066862310    -8.35e-08  4.14e-06  1.23e-04  3.07e-05     0.1
   13    -76.0604001205544620    -1.39e-08  7.86e-07  1.93e-05  1.90e-05     0.0
   14    -76.0604001220913801    -1.54e-09  2.66e-07  6.91e-06  2.61e-06     0.0
   15    -76.0604001221757926    -8.44e-11  5.89e-08  1.16e-06  5.83e-07     0.1
                 **** Energy Check signals convergence ****

               *****************************************************
               *                     SUCCESS                       *
               *           SCF CONVERGED AFTER  15 CYCLES          *
               *****************************************************

             **** ENERGY FILE WAS UPDATED (MONO2.en.tmp) ****

----------------
TOTAL SCF ENERGY
----------------

Total Energy       :        -76.06040012217579 Eh           -2069.70871 eV

Components:
Nuclear Repulsion  :          9.17259110923076 Eh             249.59889 eV
Electronic Energy  :        -85.23299123140656 Eh           -2319.30760 eV
One Electron Energy:       -123.00211200959059 Eh           -3347.05763 eV
Two Electron Energy:         37.76912077818403 Eh            1027.75003 eV

Virial components:
Potential Energy   :       -152.01045082693884 Eh           -4136.41466 eV
Kinetic Energy     :         75.95005070476303 Eh            2066.70595 eV
Virial Ratio       :          2.00145292091827

---------------
SCF CONVERGENCE
---------------

  Last Energy change         ...    8.4412e-11  Tolerance :   1.0000e-09
  Last MAX-Density change    ...    1.1627e-06  Tolerance :   1.0000e-08
  Last RMS-Density change    ...    5.8892e-08  Tolerance :   1.0000e-09
  Last DIIS Error            ...    8.0453e-04  Tolerance :   1.0000e-08
  Last Orbital Gradient      ...    5.8302e-07  Tolerance :   2.0000e-06
  Last Orbital Rotation      ...    1.0300e-06  Tolerance :   2.0000e-06


----------------
ORBITAL ENERGIES
----------------

  NO   OCC          E(Eh)            E(eV) 
   0   2.0000     -20.567866      -559.6801 
   1   2.0000      -1.352747       -36.8101 
   2   2.0000      -0.715423       -19.4677 
   3   2.0000      -0.585575       -15.9343 
   4   2.0000      -0.510324       -13.8866 
   5   0.0000       0.029378         0.7994 
   6   0.0000       0.047710         1.2983 
   7   0.0000       0.135866         3.6971 
   8   0.0000       0.158723         4.3191 
   9   0.0000       0.175254         4.7689 
  10   0.0000       0.183112         4.9827 
  11   0.0000       0.227227         6.1832 
  12   0.0000       0.245020         6.6673 
  13   0.0000       0.265461         7.2236 
  14   0.0000       0.299928         8.1614 
  15   0.0000       0.310092         8.4380 
*Only the first 10 virtual orbitals were printed.

                    ********************************
                    * MULLIKEN POPULATION ANALYSIS *
                    ********************************

-----------------------
MULLIKEN ATOMIC CHARGES
-----------------------
   0 O :   -0.442174
   1 H :    0.221083
   2 H :    0.221091
Sum of atomic charges:   -0.0000000

--------------------------------
MULLIKEN REDUCED ORBITAL CHARGES
--------------------------------
  0 O s       :     3.871835  s :     3.871835
      pz      :     1.208628  p :     4.551293
      px      :     1.711806
      py      :     1.630859
      dz2     :    -0.000916  d :     0.017783
      dxz     :     0.005212
      dyz     :     0.007760
      dx2y2   :     0.002209
      dxy     :     0.003519
      f0      :     0.000045  f :     0.001263
      f+1     :     0.000136
      f-1     :     0.000145
      f+2     :     0.000028
      f-2     :     0.000666
      f+3     :     0.000150
      f-3     :     0.000093

  1 H s       :     0.661377  s :     0.661377
      pz      :     0.022243  p :     0.099069
      px      :     0.040664
      py      :     0.036161
      dz2     :     0.004049  d :     0.018471
      dxz     :     0.005264
      dyz     :     0.004678
      dx2y2   :     0.003396
      dxy     :     0.001083

  2 H s       :     0.661372  s :     0.661372
      pz      :     0.022703  p :     0.099066
      px      :     0.040711
      py      :     0.035652
      dz2     :     0.004349  d :     0.018470
      dxz     :     0.005159
      dyz     :     0.004016
      dx2y2   :     0.003692
      dxy     :     0.001254



                     *******************************
                     * LOEWDIN POPULATION ANALYSIS *
                     *******************************

----------------------
LOEWDIN ATOMIC CHARGES
----------------------
   0 O :    1.028773
   1 H :   -0.514396
   2 H :   -0.514377

-------------------------------
LOEWDIN REDUCED ORBITAL CHARGES
-------------------------------
  0 O s       :     3.009958  s :     3.009958
      pz      :     1.140660  p :     3.876383
      px      :     1.379009
      py      :     1.356714
      dz2     :     0.015169  d :     0.070081
      dxz     :     0.020407
      dyz     :     0.030419
      dx2y2   :     0.000809
      dxy     :     0.003277
      f0      :     0.000102  f :     0.014804
      f+1     :     0.003204
      f-1     :     0.004667
      f+2     :     0.000262
      f-2     :     0.006203
      f+3     :     0.000267
      f-3     :     0.000100

  1 H s       :     0.589188  s :     0.589188
      pz      :     0.193461  p :     0.557152
      px      :     0.179778
      py      :     0.183913
      dz2     :     0.113010  d :     0.368056
      dxz     :     0.084449
      dyz     :     0.088108
      dx2y2   :     0.044364
      dxy     :     0.038125

  2 H s       :     0.589184  s :     0.589184
      pz      :     0.189466  p :     0.557140
      px      :     0.179358
      py      :     0.188316
      dz2     :     0.112260  d :     0.368053
      dxz     :     0.080580
      dyz     :     0.084835
      dx2y2   :     0.048407
      dxy     :     0.041971



                      *****************************
                      * MAYER POPULATION ANALYSIS *
                      *****************************

  NA   - Mulliken gross atomic population
  ZA   - Total nuclear charge
  QA   - Mulliken gross atomic charge
  VA   - Mayer's total valence
  BVA  - Mayer's bonded valence
  FA   - Mayer's free valence

  ATOM       NA         ZA         QA         VA         BVA        FA
  0 O      8.4422     8.0000    -0.4422     1.9962     1.9962    -0.0000
  1 H      0.7789     1.0000     0.2211     1.0327     1.0327    -0.0000
  2 H      0.7789     1.0000     0.2211     1.0327     1.0327     0.0000

  Mayer bond orders larger than 0.100000
B(  0-O ,  1-H ) :   0.9981 B(  0-O ,  2-H ) :   0.9981 

-------
TIMINGS
-------

Total SCF time: 0 days 0 hours 0 min 1 sec 

Total time                  ....       1.045 sec
Sum of individual times     ....       1.028 sec  ( 98.4%)

SCF preparation             ....       0.133 sec  ( 12.7%)
Fock matrix formation       ....       0.723 sec  ( 69.2%)
  Startup                   ....       0.021 sec  (  2.9% of F)
  RI-JK                     ....       0.672 sec  ( 92.9% of F)
Diagonalization             ....       0.000 sec  (  0.0%)
Density matrix formation    ....       0.020 sec  (  1.9%)
Total Energy calculation    ....       0.018 sec  (  1.7%)
Population analysis         ....       0.008 sec  (  0.7%)
Orbital Transformation      ....       0.010 sec  (  0.9%)
Orbital Orthonormalization  ....       0.000 sec  (  0.0%)
DIIS solution               ....       0.086 sec  (  8.2%)
SOSCF solution              ....       0.030 sec  (  2.9%)
Finished LeanSCF after   1.0 sec

Maximum memory used throughout the entire LEANSCF-calculation: 16.2 MB


           ************************************************************
           *        Program running with 4 parallel MPI-processes     *
           *              working on a common directory               *
           ************************************************************

------------------------------------------------------------------------------
                         ORCA PROPERTY INTEGRAL CALCULATIONS
------------------------------------------------------------------------------

GBWName                                   ... MONO2.gbw
Number of atoms                           ...      3
Number of basis functions                 ...     98
Max core memory                           ...   7200 MB

Dipole integrals                          ... YES
Quadrupole integrals                      ...  NO
Linear momentum integrals                 ... YES
Angular momentum integrals                ... YES
Higher moments length integrals           ...  NO
Higher moments velocity integrals         ...  NO
Kinetic energy integrals                  ...  NO
GIAO right hand sides                     ...  NO
GIAO dipole derivative integrals          ...  NO
SOC integrals                             ...  NO
EPR diamagnetic integrals (GIAO)          ...  NO
EPR gauge integrals                       ...  NO
Field gradient integrals                  ...  NO (   0 nuclei)
Spin-dipole/Fermi contact integrals       ...  NO (   0 nuclei)
Contact density integrals                 ...  NO (   0 nuclei)
Nucleus-orbit integrals                   ...  NO (   0 nuclei)
Geometric perturbations                   ...  NO (   3 nuclei)

Choice of electric origin   ... Center of mass
Position of electric origin ... (  4.2760, -0.0462,  0.0034) 
Choice of magnetic origin   ... GIAO
Position of magnetic origin ... (  0.0000,  0.0000,  0.0000) 

Calculating integrals                     ... Electric Dipole (Length)     done (  0.0 sec)
Calculating integrals                     ... Linear Momentum              done (  0.0 sec)
Calculating integrals                     ... Angular Momentum  (ElOri)    done (  0.0 sec)

Property integrals calculated in   0.0 sec

Maximum memory used throughout the entire PROPINT-calculation: 15.7 MB


           ************************************************************
           *        Program running with 4 parallel MPI-processes     *
           *              working on a common directory               *
           ************************************************************


--------------------------------------------------------------------------------
                             ORCA-MATRIX DRIVEN CI
--------------------------------------------------------------------------------


Wavefunction type
-----------------
Correlation treatment                      ...      CCSD     
Single excitations                         ... ON
Orbital optimization                       ... OFF
Calculation of Z vector                    ... OFF
Calculation of Brueckner orbitals          ... OFF
Perturbative triple excitations            ... ON
Calculation of F12 correction              ... OFF
Frozen core treatment                      ... chemical core (2 el)
Reference Wavefunction                     ... RHF
  Internal Orbitals:     1 ...    4 (  4 MO's/  8 electrons)
  Virtual  Orbitals:     5 ...   91 ( 87 MO's              )
Number of AO's                             ...     92
Number of electrons                        ...     10
Number of correlated electrons             ...      8

Algorithmic settings
--------------------
Integral transformation                    ... All integrals via the RI transformation
K(C) Formation                             ... RI-DLPNO
   PNO-Integral Storage                    ... ON DISK
   PNO occupation number cut-off           ... 1.000e-07
   Singles PNO occupation number cut-off   ... 3.000e-09
   PNO Mulliken prescreening cut-off       ... 1.000e-03
   Domain cut-off (Mulliken population)    ... 1.000e-03
   PNO Normalization                       ...    1
Maximum number of iterations               ...        50
Convergence tolerance (max. residuum)      ... 1.000e-06
Level shift for amplitude update           ... 2.000e-01
Maximum number of DIIS vectors             ...         7
DIIS turned on at iteration                ...         0
Damping before turning on DIIS             ...     0.500
Damping after turning on DIIS              ...     0.000
Pair specific amplitude update             ... OFF
Natural orbital iterations                 ... OFF
Perturbative natural orbital generation    ... OFF
Printlevel                                 ... 3

Singles Fock matrix elements calculated using PNOs.

Memory handling:
----------------
Maximum memory for working arrays          ...   7200 MB
Data storage in matrix containers          ... UNCOMPRESSED
Data type for integral storage             ... DOUBLE
In-Core Storage of quantities:
   Amplitudes+Sigma Vector      ... NO
   J+K operators                ... NO
   DIIS vectors                 ... NO
   3-external integrals         ... NO
   4-external integrals         ... NO

Localization treatment:
-----------------------
Localization option                        ...    6
Localization threshhold                    ... -1.0e+00
Using relative localization threshhold     ... 1.0e-08
Neglect threshold for strong pairs         ... 1.000e-05 Eh
Prescreening threshold for very weak pairs ... 1.000e-07 Eh

Initializing the integral package          ... done
Localizing the valence orbitals
Localizing the valence orbitals
------------------------------------------------------------------------------
                           ORCA ORBITAL LOCALIZATION
------------------------------------------------------------------------------

Input orbitals are from                  ... MONO2.gbw
Output orbitals are to                   ... MONO2.loc
Max. number of iterations                ... 128
Localizations seeded randomly            ... off
Convergence tolerance                    ... 2.000e-07
Using relative localization threshhold   ... 1.000e-08
Threshold for strong local MOs           ... 9.500e-01
Threshold for bond MOs                   ... 8.500e-01
Operator                                 ... 0
Orbital range for localization           ... 1 to 4
Localization criterion                   ... FOSTER-BOYS (AUGMENTED HESSIAN)
Doing the dipole integrals     ... o.k.
Initial value of the localization sum :     0.215224
ITERATION   0 : L=    1.8418847604 DL=  1.63e+00 (AVERGE_DL)=    0.5206823246 
ITERATION   1 : L=    2.2033002648 DL=  3.61e-01 (AVERGE_DL)=    0.2454300662 
ITERATION   2 : L=    2.4214066417 DL=  2.18e-01 (AVERGE_DL)=    0.1906595469 
ITERATION   3 : L=    2.4288163494 DL=  7.41e-03 (AVERGE_DL)=    0.0351418736 
ITERATION   4 : L=    2.4291746451 DL=  3.58e-04 (AVERGE_DL)=    0.0077276092 
ITERATION   5 : L=    2.4292017659 DL=  2.71e-05 (AVERGE_DL)=    0.0021260612 
ITERATION   6 : L=    2.4292036676 DL=  1.90e-06 (AVERGE_DL)=    0.0005629905 
ITERATION   7 : L=    2.4292038128 DL=  1.45e-07 (AVERGE_DL)=    0.0001555480 
LOCALIZATION SUM CONVERGED

------------------------------------------------------
AUGMENTED HESSIAN OPTIMIZATION OF FOSTER-BOYS ORBITALS
------------------------------------------------------

Spin operator:           0
Orbital window:          1 to 4
Number of iterations:    128
Gradient tolerance:      2.000e-07
Number of pairs:         6
Davidson threshold:      2000
Diagonalization method:  LAPACK
Iter:    0   L: 2.4292038128   Grad. norm: 2.756970e-04
   *** Likely close to a maximum now. ***
       Augmented Hessian eigenvalues:  2.40e-08 -1.27e+00 -3.15e+00 -4.59e+00 ... 
Iter:    1   L: 2.4292038248   Grad. norm: 1.076875e-08
LOCALIZATION HAS CONVERGED.

Eigenvalues of the Hessian:
  0 -1.273e+00
  1 -3.145e+00
  2 -4.590e+00
  3 -5.294e+00
  4 -7.142e+00
  5 -9.493e+00


--------------------------------------------------------------------------------
                    LOCALIZED MOLECULAR ORBITAL COMPOSITIONS
--------------------------------------------------------------------------------

The Mulliken populations for each LMO on each atom are computed
The LMO`s will be ordered according to atom index and type
  (A) Strongly localized MO`s have populations of >=0.950 on one atom
  (B) Two center bond orbitals have populations of >=0.850 on two atoms
  (C) Other MO`s are considered to be `delocalized`

FOUND  -   2 strongly local MO`s
       -   2 two center bond MO`s
       -   0 significantly delocalized MO`s

Rather strongly localized orbitals:
MO   2:   0O  -   1.000465
MO   1:   0O  -   1.000465
Bond-like localized orbitals:
MO   4:   2H  -   0.386675  and   0O  -   0.610330
MO   3:   1H  -   0.386679  and   0O  -   0.610326
Localized MO's were stored in: MONO2.loc

Localizing the core orbitals
------------------------------------------------------------------------------
                           ORCA ORBITAL LOCALIZATION
------------------------------------------------------------------------------

Input orbitals are from                  ... MONO2.loc
Output orbitals are to                   ... MONO2.loc
Max. number of iterations                ... 128
Localizations seeded randomly            ... off
Convergence tolerance                    ... 2.000e-07
Using relative localization threshhold   ... 1.000e-08
Threshold for strong local MOs           ... 9.500e-01
Threshold for bond MOs                   ... 8.500e-01
Operator                                 ... 0
Orbital range for localization           ... 0 to 0
Localization criterion                   ... FOSTER-BOYS (AUGMENTED HESSIAN)
Doing the dipole integrals     ... o.k.

ORCA_LOC: ONLY ONE ORBITAL - SKIPPING LOCALIZATION


--------------------------------------------------------------------------------
                    LOCALIZED MOLECULAR ORBITAL COMPOSITIONS
--------------------------------------------------------------------------------

The Mulliken populations for each LMO on each atom are computed
The LMO`s will be ordered according to atom index and type
  (A) Strongly localized MO`s have populations of >=0.950 on one atom
  (B) Two center bond orbitals have populations of >=0.850 on two atoms
  (C) Other MO`s are considered to be `delocalized`

FOUND  -   1 strongly local MO`s
       -   0 two center bond MO`s
       -   0 significantly delocalized MO`s

Rather strongly localized orbitals:
MO   0:   0O  -   0.999501
Localized MO's were stored in: MONO2.loc

Warning: reference  - re-canonicalizations have been set to INT 1 VIRT 1
Warning: internal orbitals are localized - no re-canonicalization of internal orbitals
Warning: UsePNO is turned on - no re-canonicalization of internal and virtual orbitals
Fock densities were made 
Making Fock matrix and reference energy:

--------------------------
CLOSED-SHELL FOCK OPERATOR
--------------------------

Time needed for Fock operator              ...            0.070 sec
Reference energy                           ...    -76.060400122

--------------
DLPNO SETTINGS (2015 fully linear scaling implementation)
--------------

TCutMKN:           1.000e-03
TCutPAO:           1.000e-03
TCutPNO:           1.000e-07
TCutPNOSingles:    3.000e-09
TCutEN:            9.700e-01
TCutPAOExt:        1.000e-01
TCutPairs:         1.000e-05
TCutPre:           1.000e-07
TCutOSV:           1.000e-06
TCutDOij:          1.000e-05
TCutDO:            5.000e-03
TCutC:             1.000e-04
TCutCPAO:          1.000e-03
TCutCMO:           1.000e-03
TScaleDOMP2PreScr: 2.000e+00
TScaleMKNMP2PreScr:1.000e+01
TScalePNOMP2PreScr:1.000e+00
PAO overlap thresh 1.000e-08
Using PNOs for Singles Fock computation
Use new domains
Use fully linear algorithm
TCutTNO:           1.000e-09
TCutMP2Pairs:      1.000e-06
TCutDOStrong:      1.000e-02
TCutDOWeak:        2.000e-02
TCutMKNStrong:     1.000e-02
TCutMKNWeak:       1.000e-01
NTCutTNO:          1

--------------------------
Mulliken population of the LMOs            ... ok
Performing proximity check                 ... 
 found 4 problematic atoms
   => In all likelyhood your results will be entirely fine!
   => In case you don't want to trust it, decrease TCutMKN to below 0.00023252.
   => but note that this is probably not necessary but will increase execution time
Calculating differential overlap integrals ... ok

--------------------------
ELECTRON PAIR PRESCREENING
--------------------------

Dipole-based pair screening          .... used

   TCutDOij = 1.000000e-05
   TCutPre  = 1.000000e-07
   .... Finished loop over pairs
Total time spent in the prescreening                  ...     0.000 sec
Time for pair-prescreening                            ...     0.000 sec
Time for pairlist organization                        ...     0.000 sec
Number of pairs skipped by pre-screening              ... 0
sum of pair energies estimated for screened out pairs ...       0.000000000000 Eh
Thresholds for map construction and integral transformation for crude MP2:
   TCutMKN                    ...     1.0e-02
   TCutDO                     ...     1.0e-02
   TCutPairs                  ...     1.0e-05
   TCutPNO_CrudeMP2           ...     1.0e-07
   TCutPNOSingles_CrudeMP2    ...     3.0e-09
--------------------------------
LOCAL RI TRANSFORMATION (IAVPAO)
--------------------------------

Orbital window:       1 to 4
Number of PAOs:      92
Basis functions:     92 (32 shells)
Aux. functions:     500 (124 shells)
Use SHARK:           on
Have SHARK:         yes

Processing maps (0.0 sec)
Average map sizes:
   Aux shells -> MOs               4.0
   Aux shells -> PAOs             92.0
   MOs        -> AO shells        32.0
   PAOs       -> AO shells        32.0

Calculating integrals (0.0 sec, 1.410 MB)
Sorting integrals (0.0 sec, 1.404 MB)
Total time for the integral transformation: 0.0 sec
--------------------------------
INITIAL GUESS AND PNO GENERATION
--------------------------------

PNO truncation parameters                   .... 
    PAOOverlapThresh   =        1.000e-08

    TCutPairs          =        1.000e-05
    TCutPNO            =        1.000e-07
    TCutPNOSingles     =        3.000e-09
    TCutMP2Pairs       =        1.000e-06
    TCutMKN            =        1.000e-02
    TCutDO             =        1.000e-02

Pair selection                          .... not used
Type of local MP2 treatment                 .... semi-local MP2
Strategy for PNO selection                  .... occupation number selection
Pair density normalization                  .... MP2 norm
Spin component scaling                      .... not used

   .... Finished loop over pairs
Making pair pair interaction lists          ... 
Pair pair interaction statistics
Nr. of pairs:                        10
Nr. of Singles:                       4
Average (per pair domain)               (Total):
Atoms:                              3.0 (3)
PNOs:                              59.6
PAOs:                   92.0 (92)
Aux functions:                    365.6 (500)
AuxAtoms:                           1.8 (3)
EXT1 basis functions:              92.0 (92)
Interacting Pairs:                 10.0 (10)
Interacting Pairs - Singles:        4.0 (4)
Average (per Single domain):
Atoms (Singles):                    3.0 (3)
PNOs (Singles):                    73.0
Basis functions (Singles):         92.0 (92)
Interacting Singles - Singles:      4.0 (4)
Interacting Singles - Pairs:       10.0 (10)
done

                       ===========================
                         10 OF   10 PAIRS ARE KEPT CCSD PAIRS
                          0 OF   10 PAIRS ARE KEPT MP2 PAIRS FOR (T)
                          0 OF   10 PAIRS ARE SKIPPED
                       ===========================

Total time spent in the initial guess                 ...     0.022 sec
Pair domain construction                              ...     0.000 sec
Time for calculating MP2 Guess in PAOs                ...     0.009 sec
     Time for Local metric generation                 ...     0.000 sec
     Time for Local Kij generation                    ...     0.005 sec
     Time for Local MP2 calculation                   ...     0.000 sec
     Time for LMP2 iterations                         ...     0.000 sec
          prep and other time                         ...     0.000 sec
          Time for sigma                              ...     0.000 sec (    0.000 sec in k-loop)
          Time for DIIS                               ...     0.000 sec
          Time for Update                             ...     0.000 sec
      Time for LMP2 I/O                               ...     0.000 sec
      Time for Initial PNO                            ...     0.000 sec
Time for generating PNOs                              ...     0.001 sec
Time for pairlist organization                        ...     0.000 sec
Time for pair-pair interaction organization           ...     0.001 sec
Size of the domain VM**-1/2 file                      ...         0 MB
SL-MP2 correlation energy (all non-screened pairs)    ...      -0.260520051275 Eh

Initial PNO correlation energy                        ...      -0.260487634492 Eh
sum of pair energies prescreened and skipped MP2 pairs...       0.000000000000 Eh
sum of pair energies of crude MP2 skipped pairs only  ...       0.000000000000 Eh
sum of MP2 pair energies for pairs that were not kept ...       0.000000000000 Eh
sum of PNO error estimates for the kept pairs         ...      -0.000032416783 Eh
                                                          --------------------
sum of all corrections                                         -0.000032416783
Initial total correlation energy                               -0.260520051275
Thresholds for map construction and integral transformation for fine MP2 and CCSD(T) calculation:
   TCutMKN   ...     1.0e-03
   TCutDO    ...     5.0e-03
   TCutPairs ...     1.0e-05
   TCutCMO   ...     1.0e-03
   TCutCPAO  ...     1.0e-03

Thresholds for map construction and integral transformation for strong Triples:
   TCutMKN   ...     1.0e-02
   TCutDO    ...     1.0e-02
   TCutCMO   ...     1.0e-03
   TCutCPAO  ...     1.0e-03

Thresholds for map construction and integral transformation for weak Triples:
   TCutMKN   ...     1.0e-01
   TCutDO    ...     2.0e-02
   TCutCMO   ...     1.0e-03
   TCutCPAO  ...     1.0e-03

--------------------------------
LOCAL RI TRANSFORMATION (IAVPAO)
--------------------------------

Orbital window:       1 to 4
Number of PAOs:      92
Basis functions:     92 (32 shells)
Aux. functions:     500 (124 shells)
Use SHARK:           on
Have SHARK:         yes

Processing maps (0.0 sec)
Average map sizes:
   Aux shells -> MOs               4.0
   Aux shells -> PAOs             92.0
   MOs        -> AO shells        32.0
   PAOs       -> AO shells        32.0

Calculating integrals (0.0 sec, 1.410 MB)
Sorting integrals (0.0 sec, 1.404 MB)
Total time for the integral transformation: 0.0 sec
--------------------------------
INITIAL GUESS AND PNO GENERATION
--------------------------------

PNO truncation parameters                   .... 
    ScaleTCutPNO       =        1.000e-02
    PAOOverlapThresh   =        1.000e-08

    TCutPairs          =        1.000e-05
    TCutPNO            =        1.000e-07
    TCutPNOSingles     =        3.000e-09
    TCutMP2Pairs       =        1.000e-06
    TCutMKN            =        1.000e-03
    TCutDO             =        5.000e-03

Pair selection                          .... not used
Type of local MP2 treatment                 .... full local MP2
Strategy for PNO selection                  .... occupation number selection
Pair density normalization                  .... MP2 norm
Spin component scaling                      .... not used

PASS-1: Formation of initial guess LMP2 amplitudes
Initial amplitudes guess done. Entering LMP2 iteration loop:
   Max. no of iterations          ...  50
   Energy convergence tolerance   ...    1.0e-07
   Residual convergence tolerance ...    5.0e-07
   Fock matrix cutoff             ...    1.0e-05 Eh
   DIIS convergence acceleration parameters:
        Max # vectors in DIIS     ... 7
        Start iteration of DIIS   ... 0
        Levelshift                ... 2.000e-01
        Damping factor 1          ... 5.000e-01
        Damping factor 2          ... 1.000e+00
   L-MP2 PNO cut-off              ...   1.0e-09
   L-MP2 PNO cut-off (core)       ...   1.0e-11
60 of 60 terms in k-loop evaluated.

                           *** Turning on DIIS ***
LMP2-Iter=   0:  ELMP2= -0.265485813200  DE=   5.0e-03 RMAX=   4.9e-03
LMP2-Iter=   1:  ELMP2= -0.268146925821  DE=   2.7e-03 RMAX=   1.9e-03
LMP2-Iter=   2:  ELMP2= -0.268530544039  DE=   3.8e-04 RMAX=   3.2e-04
LMP2-Iter=   3:  ELMP2= -0.268580935603  DE=   5.0e-05 RMAX=   1.3e-04
LMP2-Iter=   4:  ELMP2= -0.268585296336  DE=   4.4e-06 RMAX=   1.6e-05
LMP2-Iter=   5:  ELMP2= -0.268585296839  DE=   5.0e-10 RMAX=   5.5e-06
LMP2-Iter=   6:  ELMP2= -0.268585278345  DE=   1.8e-08 RMAX=   6.1e-07
LMP2-Iter=   7:  ELMP2= -0.268585274826  DE=   3.5e-09 RMAX=   2.1e-07 => CONVERGED
PASS-2: Formation of Pair natural orbitals
   .... Finished loop over pairs

  - Occupation number analysis for DOUBLES-pairs:

   Orbital Indices     % trace(D) 
  -----------------------------------
Process 0:   (    1,     1):  99.994154210957 %
Process 0:   (    2,     1):  99.996169711349 %
Process 0:   (    2,     2):  99.994154211082 %

  - Occupation number analysis for SINGLES-pairs:

   Orbital Index       % trace(D) 
  -----------------------------------
Process 2:   (    4,     1):  99.995065578337 %
Process 2:   (    4,     2):  99.995065578383 %
Process 2:   (    4,     3):  99.993978891144 %
Process 3:   (    4,     4):  99.994248027006 %
Process 3:   (    4):  99.999903194660 % (IJ)
Process 0:   (    1):  99.999939218208 % (IJ)
Process 0:   (    2):  99.999939218212 % (IJ)
Process 1:   (    3,     1):  99.995065629264 %
Process 1:   (    3,     2):  99.995065629314 %
Process 1:   (    3,     3):  99.994248098514 %
Process 1:   (    3):  99.999903197194 % (IJ)

 PNO Occupation Number Statistics: 
  | Av. % of trace(Dij) retained        ...  99.994721556535
  | sigma^2 in % of trace(Dij) retained ...   4.21e-07
  | Av. % of trace(Di) retained         ...  99.999921207068
  | sigma^2 in % of trace(Di) retained  ...   3.24e-10
 Distributions of % trace(Dij) recovered:
  |       >= 99.9  ...    10 (100.0 % of all pairs)
 Distributions of % trace(Di) recovered :
  |       >= 99.9  ...     4 (100.0 % of all I-pairs )

Making pair pair interaction lists          ... 
Pair pair interaction statistics
Nr. of pairs:                        10
Nr. of Singles:                       4
Average (per pair domain)               (Total):
Atoms:                              3.0 (3)
PNOs:                              60.3
PAOs:                   92.0 (92)
Aux functions:                    500.0 (500)
AuxAtoms:                           3.0 (3)
EXT1 basis functions:              92.0 (92)
Interacting Pairs:                 10.0 (10)
Interacting Pairs - Singles:        4.0 (4)
Average (per Single domain):
Atoms (Singles):                    3.0 (3)
PNOs (Singles):                    76.5
Basis functions (Singles):         92.0 (92)
Interacting Singles - Singles:      4.0 (4)
Interacting Singles - Pairs:       10.0 (10)
done

                       ===========================
                         10 OF   10 PAIRS ARE KEPT
                       ===========================

Total time spent in the initial guess                 ...     0.123 sec
Pair domain construction                              ...     0.000 sec
Time for calculating MP2 Guess in PAOs                ...     0.026 sec
     Time for Local metric generation                 ...     0.000 sec
     Time for Local Kij generation                    ...     0.021 sec
     Time for Local MP2 calculation                   ...     0.000 sec
     Time for LMP2 iterations                         ...     0.069 sec
          prep and other time                         ...     0.001 sec
          Time for sigma                              ...     0.023 sec (    0.021 sec in k-loop)
          Time for DIIS                               ...     0.029 sec
          Time for Update                             ...     0.003 sec
      Time for LMP2 I/O                               ...     1.706 sec
      Time for Initial PNO                            ...     0.005 sec
Time for generating PNOs                              ...     0.001 sec
Time for pairlist organization                        ...     0.000 sec
Time for pair-pair interaction organization           ...     0.000 sec
Size of the domain VM**-1/2 file                      ...        26 MB
Size of the P2V_red file                              ...         0 MB
L-MP2 correlation energy (all non-screened pairs)     ...      -0.268585274826 Eh
L-MP2 PNO error correction                            ...      -0.000000060775 Eh
                                                          --------------------
Initial total L-MP2 energy (non-screened pairs)       ...      -0.268585335601 Eh

Initial PNO correlation energy                        ...      -0.268548988844 Eh
sum of pair energies estimated for screened out pairs ...       0.000000000000 Eh
sum of MP2 pair energies for pairs that were not kept ...       0.000000000000 Eh
sum of PNO error estimates for the kept pairs         ...      -0.000036346757 Eh
                                                          --------------------
sum of all corrections                                         -0.000036346757
Initial total correlation energy                               -0.268585335601
Thresholds for map construction and integral transformation for fine MP2 and CCSD(T) calculation:
   TCutMKN   ...     1.0e-03
   TCutDO    ...     5.0e-03
   TCutPairs ...     1.0e-05
   TCutCMO   ...     1.0e-03
   TCutCPAO  ...     1.0e-03

Time for aux screen maps:            0.001
Time for maps after fine MP2:            0.001
-----------------------------
LOCAL RI TRANSFORMATION (IJV)
-----------------------------

Orbital window:       1 to 4
Basis functions:     92 (32 shells)
Aux. functions:     500 (124 shells)
Use SHARK:           on

Processing maps (0.0 sec)
Average map sizes:
   Aux shells -> MOs(i)            4.0
   Aux shells -> MOs(j)            4.0
   MOs        -> AO shells        32.0

Calculating integrals NOTE: Switching SHARK to General Contraction for MDCI
      If that is not desired please turn off the PGCFlag in the input (%shark PGCFlag 0 end)
(0.2 sec, 0.067 MB)
Sorting integrals (0.0 sec, 0.061 MB)
Total time for the integral transformation: 0.2 sec
--------------------------------
LOCAL RI TRANSFORMATION (VABPAO)
--------------------------------

Number of PAOs:      92
Basis functions:     92 (32 shells)
Aux. functions:     500 (124 shells)
Use SHARK:           on

Processing maps (0.0 sec)
Average map sizes:
   Aux shells -> PAOs             92.0
   PAOs       -> AO shells        32.0

Calculating integrals NOTE: Switching SHARK to General Contraction for MDCI
      If that is not desired please turn off the PGCFlag in the input (%shark PGCFlag 0 end)
(0.2 sec, 32.293 MB)
Finished
Precomputing pair/pair interactions        ... 

-------------------------------------
Pair Pair Term precalculation with     
RI-(ij|mn) and (im|jn) transformation  
ON THE FLY                             
-------------------------------------

Max core memory to be used                    ...   7200 MB
Number of batches needed                      ...      1 
Average Memory used per batch                 ...      0 MB
Pair Pair terms per batch                     ...      0 
Total number of pairs                         ...     10 
Memory needed for all IJPairs                 ...      0 MB
   IBatch   1 (of   1)              ... done (    0.573 sec)
Total EXT                           ...           0.573 sec

Detailed timings: 
Reading/generating VMAT                    ...          0.001 sec
Reading 3-index integrals                  ...          0.012 sec
Sorting of data                            ...          0.115 sec
Get Pair1 ...          0.000 sec
Get Pair2 ...          0.000 sec
Get Pair3 ...          0.000 sec
Get Pair4 ...          0.000 sec
Get Pair5 ...          0.000 sec
Get Pair6 ...          0.000 sec
Orthogonalization of the 3-index integrals ...          0.036 sec
Multipl. of 3-index integrals              ...          0.364 sec
GetNewMat              ...          0.005 sec
Generating IJMN (orthog. + mult.)          ...          0.465 sec
Generating IJMN (orthog. + mult.) 1         ...          0.394 sec
Generating IJMN (orthog. + mult.) 2         ...          0.000 sec
Generating IJMN (orthog. + mult.) 3         ...          0.036 sec
Generating IJMN (orthog. + mult.) 4         ...          0.035 sec
Generating IMJN (orthog. + mult.)          ...          0.041 sec

done (    0.584 sec)
IAVPA Available = YES
VABPAO Available= YES
IJV Available   = YES
IJK Available   = NO
PNO3i Available = YES
PNO3j Available = YES
PNO4 Available  = YES
---------------------
RI-PNO TRANSFORMATION
---------------------

Total Number of PNOs                   ...   603
Average number of PNOs per pair        ...    60
Maximal number of PNOs per pair        ...    64
   #pairs with  1 -  5 PNOs   :    0
   #pairs with  6 - 10 PNOs   :    0
   #pairs with 11 - 15 PNOs   :    0
   #pairs with 16 - 20 PNOs   :    0
   #pairs with 21 - 25 PNOs   :    0
   #pairs with 26 - 30 PNOs   :    0
   #pairs with 31 - 35 PNOs   :    0
   #pairs with 36 - 40 PNOs   :    0
   #pairs with 41 - 45 PNOs   :    0
   #pairs with 46 - 50 PNOs   :    0
   #pairs with 51 - 55 PNOs   :    2
   #pairs with 56 - 60 PNOs   :    2
   #pairs with 61 - 65 PNOs   :    6

Generation of (ij|ab)[P] integrals            ... on
Generation of (ia|bc)[P],(ja|bc)[P] integrals ... on
Storage of 3 and 4 external integrals         ... on
Generation of ALL (ka|bc)[P] integrals        ... on
Keep RI integrals in memory                   ... off
PNO Integral generation
Max core memory to be used                    ...   7200 MB
Number of batches needed                      ...      1 
Memory available for IJPairs                  ...   7170 MB
Memory needed per IJPair                      ...     20 MB
Total number of pairs                         ...     10 
Memory needed for all IJPairs                 ...    200 MB

Ibatch:  1 (of  1)
Starting 2-4 index PNO integral generation ... done

Timings:
Total PNO integral transformation time     ...          0.766 sec
Reading/generating VMAT                    ...          0.001 sec
Reading 3-index integrals                  ...          0.012 sec
Sorting of data (for reading)              ...          0.007 sec
      Sorting of data (for reading) 1      ...          0.000 sec
      Sorting of data (for reading) 2      ...          0.007 sec
      Sorting of data (for reading) 3      ...          0.000 sec
      Sorting of data (for reading) 4      ...          0.000 sec
      Sorting of data (for reading) 5      ...          0.000 sec
      Sorting of data (for reading) 6      ...          0.000 sec
Sorting of data (for reading) - only MN    ...          0.007 sec
Sorting of data (for intermediates)        ...          0.001 sec
Sorting of data (for writing)              ...          0.000 sec
Transformation of 3-index int. to PNO basis...          0.088 sec
Orthogonalization of the 3-index integrals ...          0.091 sec
                                        ab ...          0.080 sec
                                        ia ...          0.004 sec
                                        ja ...          0.003 sec
                                        ka ...          0.000 sec
                                        ij ...          0.001 sec
                                      kikj ...          0.003 sec
Multipl. of orthog. 3-index integrals      ...          0.285 sec
Generating of PNO1 integrals               ...          0.001 sec
Generating of K and J integrals            ...          0.004 sec
Generating of PNO3ij integrals             ...          0.045 sec
Generating of PNO3All integrals            ...          0.075 sec
Generating of PNO4 integrals               ...          0.434 sec
Generating of IKJL integrals               ...          0.000 sec
Storing data in files                      ...          0.272 sec
tmPrep ...          0.000 sec
tmPrep2 ...          0.004 sec
tmGenerate ...          0.654 sec
tmRead ...          0.108 sec
tmVIJSum ...          0.000 sec
tmVIMSum ...          0.004 sec
tmVABSum ...          0.104 sec
tmGetPairSum ...          0.000 sec
tmGetAuxAddrSum ...          0.000 sec
tmGetNewMatSum ...          0.001 sec
Size of the 3-external file                ...        17 MB
Size of the 4-external file                ...       133 MB
Size of the IKJL file                      ...         0 MB
Size of the all 3-external file            ...        34 MB
Size of the 1-external file                ...         0 MB

Making pair/pair overlap matrices          ... done (    0.004 sec)
Size of the pair overlap file              ... 3 MB
Redoing the guess amplitudes               ... done (    0.001 sec)

-------------------------
FINAL STARTUP INFORMATION
-------------------------

E(0)                                       ...    -76.060400122
E(L-MP2)                                   ...     -0.268585336
E(L-MP2) including corrections             ...     -0.268585336
Initial E(tot)                             ...    -76.328985458
<T|T>                                      ...      0.057649022
Number of pairs included                   ... 10
Total number of pairs                      ... 10

------------------------------------------------
                  RHF COUPLED CLUSTER ITERATIONS
------------------------------------------------

Number of PNO amplitudes to be optimized   ...        36489
Number of non-PNO amplitudes               ...        75690
Untruncated number of regular amplitudes   ...        75690

Iter       E(tot)           E(Corr)          Delta-E          Residual     Time
  0    -76.320904650     -0.260468181      0.008117155      0.012442675    0.95
                           *** Turning on DIIS ***
  1    -76.326521903     -0.266085434     -0.005617253      0.006807116    0.94
  2    -76.332174622     -0.271738153     -0.005652719      0.001936380    0.95
  3    -76.333282148     -0.272845679     -0.001107526      0.001031759    0.95
  4    -76.333574115     -0.273137646     -0.000291967      0.000445933    0.94
  5    -76.333644432     -0.273207963     -0.000070317      0.000184661    0.95
  6    -76.333659919     -0.273223450     -0.000015487      0.000055899    0.95
  7    -76.333662224     -0.273225755     -0.000002305      0.000018545    0.94
  8    -76.333663181     -0.273226712     -0.000000957      0.000004204    0.95
  9    -76.333662761     -0.273226292      0.000000420      0.000001454    0.98
 10    -76.333662814     -0.273226345     -0.000000053      0.000000556    0.91
               --- The Coupled-Cluster iterations have converged ---

----------------------
COUPLED CLUSTER ENERGY
----------------------

E(0)                                       ...    -76.060400122
E(CORR)(strong-pairs)                      ...     -0.273226345
E(CORR)(weak-pairs)                        ...     -0.000036347
E(CORR)(corrected)                         ...     -0.273262691
E(TOT)                                     ...    -76.333662814
Singles Norm <S|S>**1/2                    ...      0.028057315  
T1 diagnostic                              ...      0.009919759  

------------------
LARGEST AMPLITUDES
------------------
   4->  5   4->  5       0.033983
   3->  5   3->  5       0.033982
   4-> 12   4->  5       0.025631
   4->  5   4-> 12       0.025631
   3->  5   3-> 12       0.025630
   3-> 12   3->  5       0.025630
   4-> 12   4-> 12       0.024222
   3-> 12   3-> 12       0.024221
   2-> 17   2-> 17       0.023126
   1-> 17   1-> 17       0.023126
   4->  9   4->  9       0.016826
   3->  9   3->  9       0.016825
   3-> 14   3->  5       0.016274
   3->  5   3-> 14       0.016274
   4->  5   4-> 14       0.016274
   4-> 14   4->  5       0.016274


-------------------------------------------
DLPNO BASED TRIPLES CORRECTION
-------------------------------------------

Singles multiplier          ...  1.000000
TCutTNO                     ... 1.000e-09
TCutMP2Pairs                ... 1.000e-06
TCutDOStrong                ... 1.000e-02
TCutMKNStrong               ... 1.000e-02
TCutDOWeak                  ... 2.000e-02
TCutMKNWeak                 ... 1.000e-01

Parameters used in iterative triples
TCutFock                    ... 1.000e-03
TCutWeak                    ... 1.000e-08
TCutWeakGuess               ... 6.000e-06
TCutIter                    ... 1.000e-03
TNOScaleS                   ... 1.000e+01
TNOScaleW                   ... 1.000e+02
ETol                        ... 1.000e-04

Fragment selection                          .... not used
Fock matrix occ-virt block is zero --> Setting DT_in_Triples to false.
Number of Triples that are to be computed   ...        16
TNO Construction, Integral generation and (T) correction calculation are done consecutively per batch.
Batch size determined on the fly.
Max core memory to be used                        ...   7200 MB
Memory available for Triples                      ...   7167 MB
Total number of Triples                           ...     16 

 . . . . . . . . .
10% done  
20% done  
30% done  
40% done  
50% done  
60% done  
70% done  
80% done  
90% done               (      0.770 sec)

-------------------
Triples Iterations:
-------------------

The T1 Strong/Weak pair is = 13/3 

Iter        E(Triple)      Delta-E            Time
  0     0.000000000000    0.008305373214      0.79
  1    -0.008612375114    0.000307001901      0.30
  2    -0.008640973791    0.000028598676      0.28

------------------
TRIPLES CORRECTION
------------------

The Conventional (T0) is    -0.008311132210
The Truncated    (T0) is    -0.008305373214
The corrected     (T) is    -0.008646732787

Triples timings:
Total time for T0               ...     0.789 sec
Total time for Iterative (T)    ...     0.580 sec
Total time of overall (T)       ...     1.387 sec

Triples List generation         ...     0.000 sec
TNO generation                  ...     0.017 sec
Pair density generation         ...     0.000 sec
Look up tables                  ...     0.000 sec
Generating 3-index integrals    ...     0.168 sec
  Make 4-ind.int. from 3-ind.int...     0.122 sec
  Projecting amplitudes (D + S) ...     0.006 sec
  Downprojecting integrals      ...     0.170 sec
  Energy contr. (sum over a,b,c)...     0.132 sec
Fitting ET(->0)                 ...     0.000 sec

Everything after 3-index        ...     0.602 sec

Timing details:
 TNO integrals                  ...     0.282 sec
   Reading 3-index integrals    ...     0.008 sec
   Sorting integrals            ...     0.031 sec
       Sorting integrals 1      ...     0.000 sec
       Sorting integrals 2      ...     0.008 sec
       Sorting integrals 3      ...     0.002 sec
       Sorting integrals 4      ...     0.000 sec
       Sorting integrals 5      ...     0.000 sec
       Sorting integrals 6      ...     0.020 sec
   Calculating local VM**-1/2   ...     0.005 sec
   Orthogonal. integrals        ...     0.014 sec
   Multipl. 3-index integrals   ...     0.224 sec
   All concerning IRIab (w/TNO) ...     0.078 sec

 Calculate W0/W1                ...     0.170 sec
 W 3-ext contribution           ...     0.130 sec
 W 3-int contribution           ...     0.011 sec
 Sorting W                      ...     0.027 sec

 V exchange contribution        ...     0.046 sec

 Timings for Triples without generation
     of 3-index integrals       ...     0.602 sec
       0 weak pairs             ...     0.602 sec
       1 weak pair              ...     0.000 sec
       2 weak pairs             ...     0.000 sec
       3 weak pairs             ...     0.000 sec
  Extra time for extrapolation  ...     0.000 sec

Number of Triples   (0, 1, 2, 3 weak pairs; overall):     16       0       0       0  (    16)
Number of Atoms     (0, 1, 2, 3 weak pairs; overall):    3.0     0.0     0.0     0.0  (     3)
Number of PAOs      (0, 1, 2, 3 weak pairs; overall):   92.0     0.0     0.0     0.0  (    92)
Number of AuxFcns   (0, 1, 2, 3 weak pairs; overall):  402.0     0.0     0.0     0.0  (   500)
Number of TNOs      (0, 1, 2, 3 weak pairs         ):   80.8     0.0     0.0     0.0
Aver. Number of NTNO, Atoms, PAOs, AuxFcns / Triples:     16    80.8     3.0    92.0   402.0

Triples Correction (T)                     ...     -0.008646733
Final correlation energy                   ...     -0.281909424
E(CCSD)                                    ...    -76.333662814
E(CCSD(T))                                 ...    -76.342309546


------------------------------
PAIR CORRELATION ENERGIES (Eh)
------------------------------


------------------------------------------------------------------------------------------------------
    i     j         EP(Guess)         EP(Final)       Ratio       EP(aa)            EP(ab)     #PNOs  
------------------------------------------------------------------------------------------------------
    4     4  :     -0.028366255      -0.031551556     0.90     -0.000000000      -0.031551556          55 
    3     3  :     -0.028366136      -0.031551390     0.90     -0.000000000      -0.031551390          55 
    2     1  :     -0.030328841      -0.029670985     1.02     -0.010535187      -0.019135798          63 
    2     2  :     -0.024383506      -0.026324339     0.93     -0.000000000      -0.026324339          57 
    1     1  :     -0.024383506      -0.026324339     0.93     -0.000000000      -0.026324339          57 
    4     2  :     -0.027202003      -0.026309471     1.03     -0.009704304      -0.016605167          63 
    4     1  :     -0.027202003      -0.026309471     1.03     -0.009704304      -0.016605167          63 
    3     2  :     -0.027201926      -0.026309409     1.03     -0.009704285      -0.016605124          63 
    3     1  :     -0.027201926      -0.026309409     1.03     -0.009704285      -0.016605123          63 
    4     3  :     -0.023949233      -0.022565980     1.06     -0.008529727      -0.014036253          64 



--------------------------------------------------------------------------------
                                    TIMINGS
--------------------------------------------------------------------------------


Total execution time                   ...       14.181 sec

Localization of occupied MO's          ...        0.050 sec (  0.4%)
Fock Matrix Formation                  ...        0.070 sec (  0.5%)
Global overlap, Fock, MKN matrices     ...        0.088 sec (  0.6%)
Differential overlap integrals         ...        0.041 sec (  0.3%)
Organizing maps                        ...        0.001 sec (  0.0%)
RI 3-index integral generations        ...        0.456 sec (  3.2%)
RI-PNO integral transformation         ...        1.359 sec (  9.6%)
Initial Guess                          ...        0.147 sec (  1.0%)
DIIS Solver                            ...        0.070 sec (  0.5%)
State Vector Update                    ...        0.001 sec (  0.0%)
Sigma-vector construction              ...       10.366 sec ( 73.1%)
  <D|H|D>(0-ext)                       ...        0.034 sec (  0.3% of sigma)
  <D|H|D>(2-ext Fock)                  ...        0.003 sec (  0.0% of sigma)
  <D|H|D>(2-ext)                       ...        0.123 sec (  1.2% of sigma)
  <D|H|D>(4-ext)                       ...        1.979 sec ( 19.1% of sigma)
  <D|H|D>(4-ext-corr)                  ...        7.790 sec ( 75.2% of sigma)
  CCSD doubles correction              ...        0.005 sec (  0.0% of sigma)
  <S|H|S>                              ...        0.046 sec (  0.4% of sigma)
  <S|H|D>(1-ext)                       ...        0.009 sec (  0.1% of sigma)
  <S|H|D>(3-ext)                       ...        0.061 sec (  0.6% of sigma)
  Fock-dressing                        ...        0.181 sec (  1.8% of sigma)
  Singles amplitudes                   ...        0.008 sec (  0.1% of sigma)
  (ik|jl)-dressing                     ...        0.025 sec (  0.2% of sigma)
  (ij|ab),(ia|jb)-dressing             ...        0.085 sec (  0.8% of sigma)
Total Time for computing (T)           ...        1.387 sec (  9.8% of ALL)


Maximum memory used throughout the entire MDCI-calculation: 387.3 MB

-------------------------   --------------------
FINAL SINGLE POINT ENERGY       -76.342309546415
-------------------------   --------------------



           ************************************************************
           *        Program running with 4 parallel MPI-processes     *
           *              working on a common directory               *
           ************************************************************

------------------------------------------------------------------------------
                              ORCA PROPERTY CALCULATIONS
------------------------------------------------------------------------------

GBWName                                 ... MONO2.gbw
Number of atoms                         ...      3
Number of basis functions               ...     98
Max core memory                         ...   7200 MB

Electric properties:
Dipole moment                           ... YES
Quadrupole moment                       ...  NO
Static polarizability (Dipole/Dipole)   ...  NO
Static polarizability (Dipole/Quad.)    ...  NO
Static polarizability (Quad./Quad.)     ...  NO
Static polarizability (Velocity)        ...  NO

Atomic electric properties:
Dipole moment                           ...  NO
Quadrupole moment                       ...  NO
Static polarizability                   ...  NO

Choice of electric origin               ... Center of mass
Position of electric origin             ...     4.276023    -0.046218     0.003364

General magnetic properties:
Magnetizability                         ...  NO

EPR properties:
g-Tensor (aka g-matrix)                 ...  NO
Zero-Field splitting spin-orbit         ...  NO
Zero-field splitting spin-spin          ...  NO
Hyperfine couplings                     ...  NO (   0 nuclei)
Quadrupole couplings                    ...  NO (   0 nuclei)
Contact density                         ...  NO (   0 nuclei)

NMR properties:
Chemical shifts                         ...  NO (   0 nuclei)
Spin-rotation constants                 ...  NO (   0 nuclei)
Spin-spin couplings                     ...  NO (   0 nuclei,    0 pairs)

Choice of magnetic origin               ... GIAO
Position of magnetic origin             ...     0.000000     0.000000     0.000000

Properties with geometric perturbations:
SCF Hessian                             ...  NO
IR spectrum                             ...  NO
VCD spectrum                            ...  NO
X-ray spectroscopy properties:
SCF XES/XAS/RIXS spectra                ...  NO


-------------
DIPOLE MOMENT
-------------

Method             : SCF
Type of density    : Electron Density
Multiplicity       :   1
Irrep              :   0
Energy             :   -76.0604001221757926 Eh
Basis              : AO
                                X                 Y                 Z
Electronic contribution:     -0.126478080       0.154464104      -0.003498122
Nuclear contribution   :      0.623343171      -0.761271246       0.017248077
                        -----------------------------------------
Total Dipole Moment    :      0.496865092      -0.606807142       0.013749955
                        -----------------------------------------
Magnitude (a.u.)       :      0.784397149
Magnitude (Debye)      :      1.993779105



--------------------
Rotational spectrum 
--------------------
 
Rotational constants in cm-1:            26.945200            14.630495             9.482021 
Rotational constants in MHz :        807796.770105        438611.199658        284263.835767 

Dipole components along the rotational axes: 
x,y,z [a.u.] :    -0.000015    -0.784397     0.000000 
x,y,z [Debye]:    -0.000037    -1.993779     0.000000 

 

Dipole moment calculation done in   0.0 sec 

Maximum memory used throughout the entire PROP-calculation: 20.0 MB

--------------------------------
SUGGESTED CITATIONS FOR THIS RUN
--------------------------------

Below you find a list of papers that are relevant to this ORCA run
We neither can nor want to force you to cite these papers, but we appreciate if you do
You receive ORCA, which is the product of decades of hard work by many enthusiastic individuals, for free
The only thing we kindly ask in return is that you cite our papers,
We deeply appreciate it, if you show your appreciation for ORCA by not just citing the generic ORCA reference.

Please note that relegating all ORCA citations to the supporting information does *not* help us.
SI sections are not indexed - citations you put there will not count into any citation statistics
But we need these citations in order to attract the funding resources that allow us to do what we are doing

Therefore, if you are a happy ORCA user, please consider citing a few of the papers listed below in the main body of your paper

In addition to the list printed below, the program has created the file MONO2.bibtex that contains the list in bibtex format
You can import this file easily into all common literature databanks and citation aid programs


List of essential papers. We consider these as the minimum necessary citations

  1. Neese,F.
     Software update: the ORCA program system, version 5.0
     WIRES Comput. Molec. Sci., 2022 12(1)e1606
     doi.org/10.1002/wcms.1606

List of papers to cite with high priority. The work reported in these papers was absolutely
necessary for this run to complete.
Our perspective: the developers of density functionals and basis sets usually get cited in chemistry papers
Good! But without the algorithms to do something with them, the functionals or basis sets would not do anything.
Hence, in our opinion, the algorithm design and method developments papers are equally worthy of getting cited

  1. Neese,F.
     An improvement of the resolution of the identity approximation for the formation of the Coulomb matrix
     J. Comp. Chem., 2003 24(14)1740-1747
     doi.org/10.1002/jcc.10318
  2. Kossmann,S.; Neese,F.
     Comparison of two efficient approximate Hartee-Fock approaches
     Chem. Phys. Lett., 2009 481 240-243
     doi.org/10.1016/j.cplett.2009.09.073
  3. Neese,F.; Hansen,A.; Liakos,D.G.
     Efficient and accurate approximations to the local coupled cluster singles doubles method using a truncated pair natural orbital basis
     J. Chem. Phys., 2009 131 064103
     doi.org/10.1063/1.3173827
  4. Neese,F.; Wennmohs,F.; Hansen,A.
     Efficient and accurate local approximations to coupled-electron pair approaches: An attempt to revive the pair natural orbital method
     J. Chem. Phys., 2009 130 114108
     doi.org/10.1063/1.3086717
  5. Riplinger,C.; Neese,F.
     An efficient and near linear scaling pair natural orbital based local coupled cluster method
     J. Chem. Phys., 2013 138(3)Art. No. 034106
     doi.org/10.1063/1.4773581
  6. Riplinger,C.; Sandhoefer,B.; Hansen,A.; Neese,F.
     Natural triple excitations in local coupled cluster calculations with pair natural orbitals
     J. Chem. Phys., 2013 139(13)Art. No. 134101
     doi.org/10.1063/1.4821834
  7. Riplinger,C.; Pinski,P.; Becker,U.; Valeev,E.F.; Neese,F.
     Sparse maps-A systematic infrastructure for reduced-scaling electronic structure methods. II. Linear scaling domain based pair natural orbital coupled cluster theory
     J. Chem. Phys., 2016 144 
     doi.org/10.1063/1.4939030
  8. Bistoni,G.; Riplinger,C.; Minenkov,Y.; Cavallo,L.; Auer,A.A.; Neese,F.
     Treating Subvalence Correlation Effects in Domain Based Pair Natural Orbital Coupled Cluster Calculations: An Out-of-the-Box Approach
     J. Theo. Comp. Chem., 2017 13 3220-3227
     doi.org/10.1021/acs.jctc.7b00352
  9. Guo,Y.; Riplinger,C.; Becker,U.; Liakos,D.G.; Minenkov,Y.; Cavallo,L.; Neese,F.
     Communication: An improved linear scaling perturbative triples correction for the domain based local pair-natural orbital based singles and doubles coupled cluster method DLPNO-CCSD(T)
     J. Chem. Phys., 2018 148 5
     doi.org/10.1063/1.5011798
 10. Neese,F.
     The SHARK Integral Generation and Digestion System
     J. Comp. Chem., 2022  1-16
     doi.org/10.1002/jcc.26942

List of suggested additional citations. These are papers that are important in the 'surrounding' of 
of this run, or papers that preceded the highly important papers. If you like your results we are grateful for a citation.

  1. Neese,F.
     The ORCA program system
     WIRES Comput. Molec. Sci., 2012 2(1)73-78
     doi.org/10.1002/wcms.81
  2. Neese,F.
     Software update: the ORCA program system, version 4.0
     WIRES Comput. Molec. Sci., 2018 8(1)1-6
     doi.org/10.1002/wcms.1327
  3. Neese,F.; Wennmohs,F.; Becker,U.; Riplinger,C.
     The ORCA quantum chemistry program package
     J. Chem. Phys., 2020 152 Art. No. L224108
     doi.org/10.1063/5.0004608

List of optional additional citations

  1. Neese,F.
     Approximate second-order SCF convergence for spin unrestricted wavefunctions
     Chem. Phys. Lett., 2000 325(1-3)93-98
     doi.org/10.1016/s0009-2614(00)00662-x

Timings for individual modules:

Sum of individual times          ...       17.924 sec (=   0.299 min)
Startup calculation              ...        1.374 sec (=   0.023 min)   7.7 %
SCF iterations                   ...        1.521 sec (=   0.025 min)   8.5 %
Property integrals               ...        0.281 sec (=   0.005 min)   1.6 %
Property calculations            ...        0.284 sec (=   0.005 min)   1.6 %
MDCI module                      ...       14.464 sec (=   0.241 min)  80.7 %
                             ****ORCA TERMINATED NORMALLY****
TOTAL RUN TIME: 0 days 0 hours 0 minutes 18 seconds 257 msec